chemcompute.org
{'UTCtimestamp': '2022-12-21T02:31:07.763454', 'cluster': 'jetstream2', 'clusterJobNumber': '169819', 'status': 'RUNNING', 'nodeList': 'chemcompute-node-0'}
----- GAMESS execution script 'rungms' -----
This job is running on host chemcompute-node-0.novalocal
under operating system Linux at Wed Dec 21 02:31:11 UTC 2022
SLURM has assigned the following compute nodes to this run:
Available scratch disk space (Kbyte units) at beginning of the job is
Filesystem     1K-blocks     Used Available Use% Mounted on
/dev/sda4       61775852 18274620  43501232  30% /
GAMESS temporary binary files will be written to /scratch/169819
GAMESS supplementary output files will be written to /data/slurm/51/518229
Copying input file 518229.inp to your run's scratch directory...
The generated host list is
chemcompute-node-0.novalocal

 Distributed Data Interface kickoff program.
 Initiating 1 compute processes on 1 nodes to run the following command:
 /data/gamess-2019R1-avx2-ddi/gamess.00.x 518229 

          ******************************************************
          *         GAMESS VERSION = 30 JUN 2019 (R1)          *
          *             FROM IOWA STATE UNIVERSITY             *
          * M.W.SCHMIDT, K.K.BALDRIDGE, J.A.BOATZ, S.T.ELBERT, *
          *   M.S.GORDON, J.H.JENSEN, S.KOSEKI, N.MATSUNAGA,   *
          *          K.A.NGUYEN, S.J.SU, T.L.WINDUS,           *
          *       TOGETHER WITH M.DUPUIS, J.A.MONTGOMERY       *
          *         J.COMPUT.CHEM.  14, 1347-1363(1993)        *
          **************** 64 BIT INTEL VERSION ****************

  SINCE 1993, STUDENTS AND POSTDOCS WORKING AT IOWA STATE UNIVERSITY
  AND ALSO IN THEIR VARIOUS JOBS AFTER LEAVING ISU HAVE MADE IMPORTANT
  CONTRIBUTIONS TO THE CODE:
     IVANA ADAMOVIC, CHRISTINE AIKENS, YURI ALEXEEV, POOJA ARORA,
     ANDREY ASADCHEV, ROB BELL, PRADIPTA BANDYOPADHYAY, JONATHAN BENTZ,
     COLLEEN BERTONI, BRETT BODE, KURT BRORSEN, CALEB CARLIN, GALINA CHABAN,
     WEI CHEN, CHEOL HO CHOI, PAUL DAY, ALBERT DEFUSCO, NUWAN DESILVA,
     TIM DUDLEY, DMITRI FEDOROV, ALEX FINDLATER, GRAHAM FLETCHER, 
     MARK FREITAG, KURT GLAESEMANN, ANASTASIA GUNINA,
     DAN KEMP, GRANT MERRILL, NORIYUKI MINEZAWA, JONATHAN MULLIN,
     TAKESHI NAGATA, SEAN NEDD, HEATHER NETZLOFF, BOSILJKA NJEGIC, RYAN OLSON,
     MIKE PAK, BUU PHAM,
     SPENCER PRUITT, LUKE ROSKOP, JIM SHOEMAKER, LYUDMILA SLIPCHENKO,
     TONY SMITH, SAROM SOK LEANG, JIE SONG, TETSUYA TAKETSUGU, SIMON WEBB,
     PENG XU, SOOHAENG YOO, FEDERICO ZAHARIEV

  ADDITIONAL CODE HAS BEEN PROVIDED BY COLLABORATORS IN OTHER GROUPS:
     IOWA STATE UNIVERSITY:
          JOE IVANIC, AARON WEST, LAIMUTIS BYTAUTAS, KLAUS RUEDENBERG
     UNIVERSITY OF TOKYO: KIMIHIKO HIRAO, TAKAHITO NAKAJIMA,
          TAKAO TSUNEDA, MUNEAKI KAMIYA, SUSUMU YANAGISAWA,
          KIYOSHI YAGI, MAHITO CHIBA, SEIKEN TOKURA, NAOAKI KAWAKAMI
     UNIVERSITY OF AARHUS: FRANK JENSEN
     UNIVERSITY OF IOWA: VISVALDAS KAIRYS, HUI LI
     NATIONAL INST. OF STANDARDS AND TECHNOLOGY: WALT STEVENS, DAVID GARMER
     UNIVERSITY OF PISA: BENEDETTA MENNUCCI, JACOPO TOMASI
     UNIVERSITY OF MEMPHIS: HENRY KURTZ, PRAKASHAN KORAMBATH
     UNIVERSITY OF ALBERTA: TOBY ZENG, MARIUSZ KLOBUKOWSKI
     UNIVERSITY OF NEW ENGLAND: MARK SPACKMAN
     MIE UNIVERSITY: HIROAKI UMEDA
     NAT. INST. OF ADVANCED INDUSTRIAL SCIENCE AND TECHNOLOGY: KAZUO KITAURA
     MICHIGAN STATE UNIVERSITY:
          KAROL KOWALSKI, MARTA WLOCH, JEFFREY GOUR, JESSE LUTZ,
          WEI LI, JUN SHEN, J. EMILIANO DEUSTUA, PIOTR PIECUCH
     UNIVERSITY OF MINNESOTA:
          YINAN SHU
     UNIVERSITY OF SILESIA: MONIKA MUSIAL, STANISLAW KUCHARSKI
     FACULTES UNIVERSITAIRES NOTRE-DAME DE LA PAIX:
          OLIVIER QUINET, BENOIT CHAMPAGNE
     UNIVERSITY OF CALIFORNIA - SANTA BARBARA: BERNARD KIRTMAN
     INSTITUTE FOR MOLECULAR SCIENCE:
          KAZUYA ISHIMURA, MICHIO KATOUDA, AND SHIGERU NAGASE
     UNIVERSITY OF NOTRE DAME: ANNA POMOGAEVA, DAN CHIPMAN
     KYUSHU UNIVERSITY:
          HARUYUKI NAKANO,
          FENG LONG GU, JACEK KORCHOWIEC, MARCIN MAKOWSKI, AND YURIKO AOKI,
          HIROTOSHI MORI AND EISAKU MIYOSHI
     PENNSYLVANIA STATE UNIVERSITY:
          TZVETELIN IORDANOV, CHET SWALINA, JONATHAN SKONE,
          SHARON HAMMES-SCHIFFER
     WASEDA UNIVERSITY:
          MASATO KOBAYASHI, TOMOKO AKAMA, TSUGUKI TOUMA,
          TAKESHI YOSHIKAWA, YASUHIRO IKABATA, JUNJI SEINO,
          YUYA NAKAJIMA, HIROMI NAKAI
     NANJING UNIVERSITY: SHUHUA LI
     UNIVERSITY OF NEBRASKA:
          PEIFENG SU, DEJUN SI, NANDUN THELLAMUREGE, YALI WANG, HUI LI
     UNIVERSITY OF ZURICH: ROBERTO PEVERATI, KIM BALDRIDGE
     N. COPERNICUS UNIVERSITY AND JACKSON STATE UNIVERSITY:
          MARIA BARYSZ
     UNIVERSITY OF COPENHAGEN: Jimmy Kromann, CASPER STEINMANN
     TOKYO INSTITUTE OF TECHNOLOGY: HIROYA NAKATA
     NAGOYA UNIVERSITY: YOSHIO NISHIMOTO, STEPHAN IRLE
     MOSCOW STATE UNIVERSITY: VLADIMIR MIRONOV
     A.N.NESMEYANOV INSTITUTE OF ORGANOELEMENT COMPOUNDS OF RUSSIAN ACADEMY OF SCIENCES:
          IGOR S. GERASIMOV

 EXECUTION OF GAMESS BEGUN Wed Dec 21 02:31:11 2022

            ECHO OF THE FIRST FEW INPUT CARDS -
 INPUT CARD>!                                                                               
 INPUT CARD>!   GAMESS Calculation input file                                               
 INPUT CARD>!                                                                               
 INPUT CARD>!                                                                               
 INPUT CARD> $CONTRL SCFTYP=RHF MAXIT=200 RUNTYP=OPTIMIZE                                   
 INPUT CARD>         COORD=UNIQUE MULT=1                                                    
 INPUT CARD>         ICHARG=0                                                               
 INPUT CARD>         DFTTYP=B3LYP                                                           
 INPUT CARD>         MOLPLT=.FALSE. PLTORB=.FALSE.  $END                                    
 INPUT CARD> $SYSTEM TIMLIM=2879 MWORDS=250  $END                                           
 INPUT CARD>                                                                                
 INPUT CARD> $STATPT OPTTOL=0.0005 NSTEP=999 $END                                           
 INPUT CARD> $STATPT IHREP=0  $END                                                          
 INPUT CARD>                                                                                
 INPUT CARD> $DFT    METHOD=GRID  NLEB=590  $END                                            
 INPUT CARD>                                                                                
 INPUT CARD> $BASIS  GBASIS=N21 NGAUSS=3 $END                                               
 INPUT CARD>                                                                                
 INPUT CARD> $SCF    DIRSCF=.T. $END                                                        
 INPUT CARD> $GUESS  GUESS=HUCKEL  $END                                                     
 INPUT CARD>                                                                                
 INPUT CARD> $DATA                                                                          
 INPUT CARD>                                                                                
 INPUT CARD>  C1                                                                            
 INPUT CARD>C     6.0     1.17416    -0.79285     0.14823                                   
 INPUT CARD>C     6.0     1.28722     0.69652    -0.01063                                   
 INPUT CARD>C     6.0    -0.04939     1.46479    -0.02511                                   
 INPUT CARD>C     6.0    -1.28171     0.61085    -0.11204                                   
 INPUT CARD>C     6.0    -1.23847    -0.72497    -0.08194                                   
 INPUT CARD>C     6.0     0.00457    -1.43591     0.08281                                   
 INPUT CARD>H     1.0     2.09154    -1.35536     0.29760                                   
 INPUT CARD>H     1.0     1.81952     0.89048    -0.94470                                   
 INPUT CARD>H     1.0     1.92176     1.09632     0.78425                                   
 INPUT CARD>H     1.0    -0.04718     2.17076    -0.86445                                   
 INPUT CARD>H     1.0    -0.11958     2.07462     0.87717                                   
 INPUT CARD>H     1.0    -2.24021     1.11651    -0.19197                                   
 INPUT CARD>H     1.0    -2.15226    -1.31206    -0.14321                                   
 INPUT CARD>H     1.0    -0.03973    -2.51919     0.16941                                   
 INPUT CARD> $END                                                                           
 INPUT CARD>                                                                                
 INPUT CARD>                                                                                
 INPUT CARD>! Customizations after this line are persisted when using Do More Calculations  
  250000000 WORDS OF MEMORY AVAILABLE

     BASIS OPTIONS
     -------------
     GBASIS=N21          IGAUSS=       3      POLAR=NONE    
     NDFUNC=       0     NFFUNC=       0     DIFFSP=       F
     NPFUNC=       0      DIFFS=       F     BASNAM=        


     RUN TITLE
     ---------
                                                                                 

 THE POINT GROUP OF THE MOLECULE IS C1      
 THE ORDER OF THE PRINCIPAL AXIS IS     0

 ATOM      ATOMIC                      COORDINATES (BOHR)
           CHARGE         X                   Y                   Z
 C           6.0     2.2188406657       -1.4982692494        0.2801140832
 C           6.0     2.4324930859        1.3162319450       -0.0200877872
 C           6.0    -0.0933335665        2.7680517296       -0.0474510196
 C           6.0    -2.4220806957        1.1543391196       -0.2117248997
 C           6.0    -2.3403689440       -1.3699946493       -0.1548441474
 C           6.0     0.0086360478       -2.7134764430        0.1564882090
 H           1.0     3.9524374924       -2.5612590147        0.5623824539
 H           1.0     3.4383942292        1.6827631975       -1.7852241406
 H           1.0     3.6315998142        2.0717443949        1.4820176059
 H           1.0    -0.0891572721        4.1021415851       -1.6335736301
 H           1.0    -0.2259734336        3.9204633286        1.6576109446
 H           1.0    -4.2333830550        2.1098979626       -0.3627706979
 H           1.0    -4.0671816543       -2.4794338795       -0.2706276587
 H           1.0    -0.0750788135       -4.7605788110        0.3201384796

          INTERNUCLEAR DISTANCES (ANGS.)
          ------------------------------

                1 C          2 C          3 C          4 C          5 C     

   1 C       0.0000000    1.5020792 *  2.5737249 *  2.8406710 *  2.4245349 *
   2 C       1.5020792 *  0.0000000    1.5417441 *  2.5723578 *  2.8991083 *
   3 C       2.5737249 *  1.5417441 *  0.0000000    1.5017932 *  2.4924265 *
   4 C       2.8406710 *  2.5723578 *  1.5017932 *  0.0000000    1.3368585 *
   5 C       2.4245349 *  2.8991083 *  2.4924265 *  1.3368585 *  0.0000000  
   6 C       1.3363183 *  2.4902168 *  2.9032084 *  2.4252235 *  1.4414322 *
   7 H       1.0864230 *  2.2253422 *  3.5554140    3.9258887    3.4103385  
   8 H       2.1082185 *  1.0924516 *  2.1606254 *  3.2232194    3.5644546  
   9 H       2.1289412 *  1.0928473 *  2.1624676 *  3.3617312    3.7489247  
  10 H       3.3615735    2.1640276 *  1.0967635 *  2.1268532 *  3.2274984  
  11 H       3.2291641    2.1601932 *  1.0912967 *  2.1146407 *  3.1637811  
  12 H       3.9267435    3.5569704    2.2245974 *  1.0866476 *  2.0991994 *
  13 H       3.3792878    3.9852219    3.4852411    2.1110215 *  1.0878607 *
  14 H       2.1105040 *  3.4833894    3.9887376    3.3791832    2.1724134 *

                6 C          7 H          8 H          9 H         10 H     

   1 C       1.3363183 *  1.0864230 *  2.1082185 *  2.1289412 *  3.3615735  
   2 C       2.4902168 *  2.2253422 *  1.0924516 *  1.0928473 *  2.1640276 *
   3 C       2.9032084 *  3.5554140    2.1606254 *  2.1624676 *  1.0967635 *
   4 C       2.4252235 *  3.9258887    3.2232194    3.3617312    2.1268532 *
   5 C       1.4414322 *  3.4103385    3.5644546    3.7489247    3.2274984  
   6 C       0.0000000    2.0995397 *  3.1244057    3.2526642    3.7293495  
   7 H       2.0995397 *  0.0000000    2.5809110 *  2.5052721 *  4.2846243  
   8 H       3.1244057    2.5809110 *  0.0000000    1.7441592 *  2.2649781 *
   9 H       3.2526642    2.5052721 *  1.7441592 *  0.0000000    2.7837668 *
  10 H       3.7293495    4.2846243    2.2649781 *  2.7837668 *  0.0000000  
  11 H       3.6014222    4.1218583    2.9123026 *  2.2655626 *  1.7457734 *
  12 H       3.4101890    5.0113749    4.1351058    4.2749746    2.5244906 *
  13 H       2.1721739 *  4.2668521    4.6117898    4.8226668    4.1329873  
  14 H       1.0876385 *  2.4317164 *  4.0402848    4.1590124    4.8025569  

               11 H         12 H         13 H         14 H     

   1 C       3.2291641    3.9267435    3.3792878    2.1105040 *
   2 C       2.1601932 *  3.5569704    3.9852219    3.4833894  
   3 C       1.0912967 *  2.2245974 *  3.4852411    3.9887376  
   4 C       2.1146407 *  1.0866476 *  2.1110215 *  3.3791832  
   5 C       3.1637811    2.0991994 *  1.0878607 *  2.1724134 *
   6 C       3.6014222    3.4101890    2.1721739 *  1.0876385 *
   7 H       4.1218583    5.0113749    4.2668521    2.4317164 *
   8 H       2.9123026 *  4.1351058    4.6117898    4.0402848  
   9 H       2.2655626 *  4.2749746    4.8226668    4.1590124  
  10 H       1.7457734 *  2.5244906 *  4.1329873    4.8025569  
  11 H       0.0000000    2.5608801 *  4.0795300    4.6486977  
  12 H       2.5608801 *  0.0000000    2.4306511 *  4.2650935  
  13 H       4.0795300    2.4306511 *  0.0000000    2.4530954 *
  14 H       4.6486977    4.2650935    2.4530954 *  0.0000000  

  * ... LESS THAN  3.000


     ATOMIC BASIS SET
     ----------------
 THE CONTRACTED PRIMITIVE FUNCTIONS HAVE BEEN UNNORMALIZED
 THE CONTRACTED BASIS FUNCTIONS ARE NOW NORMALIZED TO UNITY

  SHELL TYPE  PRIMITIVE        EXPONENT          CONTRACTION COEFFICIENT(S)

 C         

      1   S       1           172.2560000    0.061766907377
      1   S       2            25.9109000    0.358794042852
      1   S       3             5.5333500    0.700713083689

      2   L       4             3.6649800   -0.395895162119    0.236459946619
      2   L       5             0.7705450    1.215834355681    0.860618805716

      3   L       6             0.1958570    1.000000000000    1.000000000000

 C         

      4   S       7           172.2560000    0.061766907377
      4   S       8            25.9109000    0.358794042852
      4   S       9             5.5333500    0.700713083689

      5   L      10             3.6649800   -0.395895162119    0.236459946619
      5   L      11             0.7705450    1.215834355681    0.860618805716

      6   L      12             0.1958570    1.000000000000    1.000000000000

 C         

      7   S      13           172.2560000    0.061766907377
      7   S      14            25.9109000    0.358794042852
      7   S      15             5.5333500    0.700713083689

      8   L      16             3.6649800   -0.395895162119    0.236459946619
      8   L      17             0.7705450    1.215834355681    0.860618805716

      9   L      18             0.1958570    1.000000000000    1.000000000000

 C         

     10   S      19           172.2560000    0.061766907377
     10   S      20            25.9109000    0.358794042852
     10   S      21             5.5333500    0.700713083689

     11   L      22             3.6649800   -0.395895162119    0.236459946619
     11   L      23             0.7705450    1.215834355681    0.860618805716

     12   L      24             0.1958570    1.000000000000    1.000000000000

 C         

     13   S      25           172.2560000    0.061766907377
     13   S      26            25.9109000    0.358794042852
     13   S      27             5.5333500    0.700713083689

     14   L      28             3.6649800   -0.395895162119    0.236459946619
     14   L      29             0.7705450    1.215834355681    0.860618805716

     15   L      30             0.1958570    1.000000000000    1.000000000000

 C         

     16   S      31           172.2560000    0.061766907377
     16   S      32            25.9109000    0.358794042852
     16   S      33             5.5333500    0.700713083689

     17   L      34             3.6649800   -0.395895162119    0.236459946619
     17   L      35             0.7705450    1.215834355681    0.860618805716

     18   L      36             0.1958570    1.000000000000    1.000000000000

 H         

     19   S      37             5.4471780    0.156284978695
     19   S      38             0.8245472    0.904690876670

     20   S      39             0.1831916    1.000000000000

 H         

     21   S      40             5.4471780    0.156284978695
     21   S      41             0.8245472    0.904690876670

     22   S      42             0.1831916    1.000000000000

 H         

     23   S      43             5.4471780    0.156284978695
     23   S      44             0.8245472    0.904690876670

     24   S      45             0.1831916    1.000000000000

 H         

     25   S      46             5.4471780    0.156284978695
     25   S      47             0.8245472    0.904690876670

     26   S      48             0.1831916    1.000000000000

 H         

     27   S      49             5.4471780    0.156284978695
     27   S      50             0.8245472    0.904690876670

     28   S      51             0.1831916    1.000000000000

 H         

     29   S      52             5.4471780    0.156284978695
     29   S      53             0.8245472    0.904690876670

     30   S      54             0.1831916    1.000000000000

 H         

     31   S      55             5.4471780    0.156284978695
     31   S      56             0.8245472    0.904690876670

     32   S      57             0.1831916    1.000000000000

 H         

     33   S      58             5.4471780    0.156284978695
     33   S      59             0.8245472    0.904690876670

     34   S      60             0.1831916    1.000000000000

 TOTAL NUMBER OF BASIS SET SHELLS             =   34
 NUMBER OF CARTESIAN GAUSSIAN BASIS FUNCTIONS =   70
 NUMBER OF ELECTRONS                          =   44
 CHARGE OF MOLECULE                           =    0
 SPIN MULTIPLICITY                            =    1
 NUMBER OF OCCUPIED ORBITALS (ALPHA)          =   22
 NUMBER OF OCCUPIED ORBITALS (BETA )          =   22
 TOTAL NUMBER OF ATOMS                        =   14
 THE NUCLEAR REPULSION ENERGY IS      218.6924018589

 SELECTED MURRAY-HANDY-LAMING RADIAL GRID

 LEGACY BECKE'S FUZZY CELL METHOD

 SELECTED ORIGINAL BECKE'S PARTITION FUNCTION

     LEBEDEV GRID-BASED DFT OPTIONS
     ------------------------------
     DFTTYP=B3LYP   
     NRAD  =      96     NLEB  =     590
     NRAD0 =      24     NLEB0 =     110
     SWOFF =    5.00E-03 (PURE SCF -> DFT)
     SWITCH=    3.00E-04 (COARSE -> TIGHT GRID)
     THRESH=    0.00E+00 GTHRE=    1.00E+00

 GRIMME'S EMPIRICAL DISPERSION CORRECTION= F

     $CONTRL OPTIONS
     ---------------
 SCFTYP=RHF          RUNTYP=OPTIMIZE     EXETYP=RUN     
 MPLEVL=       0     CITYP =NONE         CCTYP =NONE         VBTYP =NONE    
 DFTTYP=B3LYP        TDDFT =NONE    
 MULT  =       1     ICHARG=       0     NZVAR =       0     COORD =UNIQUE  
 PP    =NONE         RELWFN=NONE         LOCAL =NONE         NUMGRD=       F
 ISPHER=      -1     NOSYM =       0     MAXIT =     200     UNITS =ANGS    
 PLTORB=       F     MOLPLT=       F     AIMPAC=       F     FRIEND=        
 NPRINT=       7     IREST =       0     GEOM  =INPUT   
 NORMF =       0     NORMP =       0     ITOL  =      20     ICUT  =       9
 INTTYP=BEST         GRDTYP=BEST         QMTTOL= 1.0E-06

     $SYSTEM OPTIONS
     ---------------
  REPLICATED MEMORY=   250000000 WORDS (ON EVERY NODE).
 DISTRIBUTED MEMDDI=           0 MILLION WORDS IN AGGREGATE,
 MEMDDI DISTRIBUTED OVER   1 PROCESSORS IS           0 WORDS/PROCESSOR.
 TOTAL MEMORY REQUESTED ON EACH PROCESSOR=   250000000 WORDS.
 TIMLIM=        2879.00 MINUTES, OR       2.0 DAYS.
 PARALL= F  BALTYP=  DLB     KDIAG=    0  COREFL= F
 MXSEQ2=     300 MXSEQ3=     150  mem10=         0

          ----------------
          PROPERTIES INPUT
          ----------------

     MOMENTS            FIELD           POTENTIAL          DENSITY
 IEMOM =       1   IEFLD =       0   IEPOT =       0   IEDEN =       0
 WHERE =COMASS     WHERE =NUCLEI     WHERE =NUCLEI     WHERE =NUCLEI  
 OUTPUT=BOTH       OUTPUT=BOTH       OUTPUT=BOTH       OUTPUT=BOTH    
 IEMINT=       0   IEFINT=       0                     IEDINT=       0
                                                       MORB  =       0
          EXTRAPOLATION IN EFFECT
          DIIS IN EFFECT
 ORBITAL PRINTING OPTION: NPREO=     1    70     2     1

     -------------------------------
     INTEGRAL TRANSFORMATION OPTIONS
     -------------------------------
     NWORD  =            0
     CUTOFF = 1.0E-09     MPTRAN =       0
     DIRTRF =       T     AOINTS =DUP     

          ----------------------
          INTEGRAL INPUT OPTIONS
          ----------------------
 NOPK  =       1 NORDER=       0 SCHWRZ=       T

     ------------------------------------------
     THE POINT GROUP IS C1 , NAXIS= 0, ORDER= 1
     ------------------------------------------

     DIMENSIONS OF THE SYMMETRY SUBSPACES ARE
 A   =   70

 ..... DONE SETTING UP THE RUN .....
 STEP CPU TIME =     0.01 TOTAL CPU TIME =          0.0 (      0.0 MIN)
 TOTAL WALL CLOCK TIME=          0.0 SECONDS, CPU UTILIZATION IS    50.00%


          -----------------------------
          STATIONARY POINT LOCATION RUN
          -----------------------------

 OBTAINING INITIAL HESSIAN, HESS=GUESS   
 CARTESIAN COORDINATE OPTIMIZATION USING BADGER'S RULE FORCE CONSTANT GUESS

          PARAMETERS CONTROLLING GEOMETRY SEARCH ARE
          METHOD =QA                  UPHESS =BFGS    
          NNEG   =         0          NFRZ   =         0
          NSTEP  =       999          IFOLOW =         1
          HESS   =GUESS               RESTAR =         F
          IHREP  =         0          HSSEND =         F
          NPRT   =         0          NPUN   =         0
          OPTTOL = 5.000E-04          RMIN   = 1.500E-03
          RMAX   = 1.000E-01          RLIM   = 7.000E-02
          DXMAX  = 3.000E-01          PURIFY =         F
          MOVIE  =         F          TRUPD  =         T
          TRMAX  = 5.000E-01          TRMIN  = 5.000E-02
          ITBMAT =         5          STPT   =         F
          STSTEP = 1.000E-02          PROJCT=          T

 BEGINNING GEOMETRY SEARCH POINT NSERCH=   0 ...

 COORDINATES OF ALL ATOMS ARE (ANGS)
   ATOM   CHARGE       X              Y              Z
 ------------------------------------------------------------
 C           6.0   1.1741600000  -0.7928500000   0.1482300000
 C           6.0   1.2872200000   0.6965200000  -0.0106300000
 C           6.0  -0.0493900000   1.4647900000  -0.0251100000
 C           6.0  -1.2817100000   0.6108500000  -0.1120400000
 C           6.0  -1.2384700000  -0.7249700000  -0.0819400000
 C           6.0   0.0045700000  -1.4359100000   0.0828100000
 H           1.0   2.0915400000  -1.3553600000   0.2976000000
 H           1.0   1.8195200000   0.8904800000  -0.9447000000
 H           1.0   1.9217600000   1.0963200000   0.7842500000
 H           1.0  -0.0471800000   2.1707600000  -0.8644500000
 H           1.0  -0.1195800000   2.0746200000   0.8771700000
 H           1.0  -2.2402100000   1.1165100000  -0.1919700000
 H           1.0  -2.1522600000  -1.3120600000  -0.1432100000
 H           1.0  -0.0397300000  -2.5191900000   0.1694100000

          ********************
          1 ELECTRON INTEGRALS
          ********************
 ...... END OF ONE-ELECTRON INTEGRALS ......
 STEP CPU TIME =     0.00 TOTAL CPU TIME =          0.0 (      0.0 MIN)
 TOTAL WALL CLOCK TIME=          0.0 SECONDS, CPU UTILIZATION IS    33.33%

          -------------
          GUESS OPTIONS
          -------------
          GUESS =HUCKEL            NORB  =       0          NORDER=       0
          MIX   =       F          PRTMO =       F          PUNMO =       F
          TOLZ  = 1.0E-08          TOLE  = 1.0E-05
          SYMDEN=       F          PURIFY=       F

 INITIAL GUESS ORBITALS GENERATED BY HUCKEL   ROUTINE.
 HUCKEL GUESS REQUIRES     51590 WORDS.

 SYMMETRIES FOR INITIAL GUESS ORBITALS FOLLOW.   BOTH SET(S).
    22 ORBITALS ARE OCCUPIED (    6 CORE ORBITALS).
     7=A        8=A        9=A       10=A       11=A       12=A       13=A   
    14=A       15=A       16=A       17=A       18=A       19=A       20=A   
    21=A       22=A       23=A       24=A       25=A       26=A       27=A   
    28=A       29=A       30=A       31=A       32=A   
 ...... END OF INITIAL ORBITAL SELECTION ......
 STEP CPU TIME =     0.01 TOTAL CPU TIME =          0.0 (      0.0 MIN)
 TOTAL WALL CLOCK TIME=          0.0 SECONDS, CPU UTILIZATION IS    40.00%

                    ----------------------
                    AO INTEGRAL TECHNOLOGY
                    ----------------------
     S,P,L SHELL ROTATED AXIS INTEGRALS, REPROGRAMMED BY
        KAZUYA ISHIMURA (IMS) AND JOSE SIERRA (SYNSTAR).
     S,P,D,L SHELL ROTATED AXIS INTEGRALS PROGRAMMED BY
        KAZUYA ISHIMURA (INSTITUTE FOR MOLECULAR SCIENCE).
     S,P,D,F,G SHELL TO TOTAL QUARTET ANGULAR MOMENTUM SUM 5,
        ERIC PROGRAM BY GRAHAM FLETCHER (ELORET AND NASA ADVANCED
        SUPERCOMPUTING DIVISION, AMES RESEARCH CENTER).
     S,P,D,F,G,L SHELL GENERAL RYS QUADRATURE PROGRAMMED BY
        MICHEL DUPUIS (PACIFIC NORTHWEST NATIONAL LABORATORY).

          --------------------
          2 ELECTRON INTEGRALS
          --------------------

 DIRECT SCF METHOD SKIPS INTEGRAL STORAGE ON DISK.
 DIRECT TRANSFORMATION SKIPS AO INTEGRAL STORAGE ON DISK.
  ...... END OF TWO-ELECTRON INTEGRALS .....
 STEP CPU TIME =     0.00 TOTAL CPU TIME =          0.0 (      0.0 MIN)
 TOTAL WALL CLOCK TIME=          0.1 SECONDS, CPU UTILIZATION IS    33.33%

          --------------------------
             R-B3LYP SCF CALCULATION
          --------------------------

     NUCLEAR ENERGY =       218.6924018589
     MAXIT =  200     NPUNCH=    2
     EXTRAP=T  DAMP=F  SHIFT=F  RSTRCT=F  DIIS=T  DEM=F  SOSCF=F
         DENSITY MATRIX CONVERGENCE THRESHOLD=  2.00E-05
     COARSE -> FINE DFT GRID SWITCH THRESHOLD=  3.00E-04 (SWITCH IN $DFT)
                   HF -> DFT SWITCH THRESHOLD=  5.00E-03 (SWOFF IN $DFT)
     MEMORY REQUIRED FOR RHF ITERS=    976794 WORDS.

 DIRECT SCF CALCULATION, SCHWRZ=T   FDIFF=T,  DIRTHR=  0.00E+00 NITDIR=10
 SCHWARZ INEQUALITY OVERHEAD:      2472 INTEGRALS, T=        0.00

 DFT CODE IS SWITCHING FROM THE FINE GRID NRAD= 96,  NLEB=  590
                      TO THE COARSE GRID NRAD0= 24, NLEB0=  110

     EXCHANGE FUNCTIONAL   =B88&HFX   
     CORRELATION FUNCTIONAL=LYP88&VWN5
     DFT THRESHOLD         =.504E-08
     GRID CHANGE THRESHOLD =.300E-03
 FOR AN EULER-MACLAURIN QUADRATURE USING  96 RADIAL POINTS:
 SMALLEST GAUSSIAN PRIMITIVE EXPONENT=        0.1831915800 OF TYPE -S-
 ON ATOM NUMBER   7 HAS RADIAL NORMALIZATION=  1.000000
  LARGEST GAUSSIAN PRIMITIVE EXPONENT=      172.2560000000 OF TYPE -S-
 ON ATOM NUMBER   1 HAS RADIAL NORMALIZATION=  1.000000
 DFT IS SWITCHED OFF, PERFORMING PURE SCF UNTIL SWOFF THRESHOLD IS REACHED.

                                                                                   NONZERO     BLOCKS
 ITER EX DEM     TOTAL ENERGY        E CHANGE  DENSITY CHANGE    DIIS ERROR      INTEGRALS    SKIPPED
   1  0  0     -230.1046353497  -230.1046353497   0.509191484   0.578546819        2780582      39127
          * * *   INITIATING DIIS PROCEDURE   * * *
   2  1  0     -230.5182939753    -0.4136586256   0.078478396   0.069635135        2775346      41252
   3  2  0     -230.5352627249    -0.0169687496   0.042717937   0.018617145        2756767      44847
   4  3  0     -230.5370875957    -0.0018248708   0.011064161   0.006592901        2724184      49895
   5  4  0     -230.5373224796    -0.0002348839   0.002086947   0.002051640        2696573      53196
 CONVERGED TO SWOFF, SO DFT CALCULATION IS NOW SWITCHED ON.
          * * *   INITIATING DIIS PROCEDURE   * * *
   6  5  0     -231.9576061888    -1.4202837093   0.091450063   0.083243015        2780698      39110
   7  6  0     -231.9734838805    -0.0158776916   0.037662389   0.029919808        2767165      43402
   8  7  0     -231.9757094120    -0.0022255315   0.020771863   0.022169702        2746642      46047
   9  8  0     -231.9779649404    -0.0022555284   0.002540360   0.001646852        2724976      49225
  10  9  0     -231.9779730898    -0.0000081494   0.000737412   0.000502897        2628853      60128
  11 10  0     -231.9779742382    -0.0000011484   0.000125246   0.000114210        2562849      66179
 DFT CODE IS SWITCHING BACK TO THE FINE GRID
          * * *   INITIATING DIIS PROCEDURE   * * *
  12 11  0     -231.9799011415    -0.0019269033   0.002860570   0.000498194        2781322      38790
  13 12  0     -231.9799047924    -0.0000036509   0.000495179   0.000204891        2639574      59130
  14 13  0     -231.9799047151     0.0000000773   0.000286105   0.000351805        2553280      67028
  15 14  0     -231.9799050611    -0.0000003460   0.000071490   0.000095690        2519946      70830
  16 15  0     -231.9799050836    -0.0000000225   0.000005882   0.000006061        2433437      77961
  17 16  0     -231.9799050840    -0.0000000004   0.000003028   0.000001042        2273773      90408

          -----------------
          DENSITY CONVERGED
          -----------------
     TIME TO FORM FOCK OPERATORS=      13.2 SECONDS (       0.8 SEC/ITER)
     FOCK TIME ON FIRST ITERATION=       0.1, LAST ITERATION=       1.9
     TIME TO SOLVE SCF EQUATIONS=       0.1 SECONDS (       0.0 SEC/ITER)

 FINAL R-B3LYP ENERGY IS     -231.9799050840 AFTER  17 ITERATIONS
 DFT EXCHANGE + CORRELATION ENERGY =       -28.5313818856
 TOTAL ELECTRON NUMBER             =        44.0000355682

          ------------
          EIGENVECTORS
          ------------

                      1          2          3          4          5
                  -10.1171   -10.1161   -10.1136   -10.1132   -10.1087
                     A          A          A          A          A   
    1  C  1  S    0.049999  -0.140273  -0.341274   0.906052  -0.069434
    2  C  1  S    0.007603  -0.018101  -0.038942   0.100343  -0.004236
    3  C  1  X   -0.000061   0.000629   0.000604  -0.000912  -0.000757
    4  C  1  Y   -0.000216  -0.001172  -0.000808   0.000213  -0.000216
    5  C  1  Z   -0.000050   0.000103   0.000145  -0.000216  -0.000038
    6  C  1  S   -0.029462   0.033248   0.043468  -0.085682  -0.027096
    7  C  1  X    0.009517  -0.005018  -0.013093   0.017352   0.017639
    8  C  1  Y   -0.014006   0.018110   0.005161  -0.002601  -0.002033
    9  C  1  Z    0.002371  -0.002284  -0.001831   0.002522   0.001714
   10  C  2  S   -0.513643   0.829406  -0.017596   0.147501  -0.001148
   11  C  2  S   -0.064183   0.096124  -0.000991   0.014463  -0.001112
   12  C  2  X   -0.000135  -0.000233   0.000500   0.000799  -0.000052
   13  C  2  Y    0.000180   0.000168  -0.000100   0.000342  -0.000814
   14  C  2  Z   -0.000042  -0.000079   0.000234  -0.000083   0.000013
   15  C  2  S    0.087379  -0.082038  -0.012479   0.006519   0.010936
   16  C  2  X   -0.019266   0.000168   0.005867  -0.007593  -0.005306
   17  C  2  Y   -0.000550   0.009084   0.007116  -0.011041  -0.000742
   18  C  2  Z    0.000515  -0.000408  -0.001487   0.000887   0.000508
   19  C  3  S    0.835929   0.504864   0.119890   0.076276   0.004240
   20  C  3  S    0.101008   0.056409   0.011158   0.007813   0.001355
   21  C  3  X   -0.000062   0.000342   0.000150  -0.000329   0.000755
   22  C  3  Y   -0.000011  -0.000118   0.000435   0.000858   0.000577
   23  C  3  Z   -0.000047   0.000095   0.000190  -0.000259   0.000068
   24  C  3  S   -0.115182  -0.033388   0.013688  -0.003952  -0.011074
   25  C  3  X   -0.004737   0.010984  -0.006354  -0.001071  -0.002155
   26  C  3  Y    0.017249  -0.003446  -0.015104  -0.001611   0.005024
   27  C  3  Z    0.000439  -0.000044  -0.001126   0.001078  -0.000132
   28  C  4  S   -0.101158  -0.103351   0.910611   0.331068   0.081317
   29  C  4  S   -0.014275  -0.012780   0.101590   0.035827   0.004925
   30  C  4  X   -0.000492  -0.001264   0.001150  -0.000341  -0.000325
   31  C  4  Y    0.000117  -0.000112  -0.000580  -0.000364   0.001161
   32  C  4  Z   -0.000074  -0.000008   0.000131  -0.000017  -0.000017
   33  C  4  S    0.041010   0.016203  -0.093498  -0.023223   0.029244
   34  C  4  X    0.023572   0.008530  -0.015869   0.000987   0.011397
   35  C  4  Y    0.001258   0.004783   0.015952   0.002390  -0.016084
   36  C  4  Z    0.001800   0.000481  -0.001607  -0.000300   0.001279
   37  C  5  S    0.005582  -0.004055  -0.103855  -0.044882   0.742650
   38  C  5  S    0.001857  -0.000738  -0.016995  -0.006520   0.084877
   39  C  5  X    0.000135  -0.000158  -0.000362  -0.001164   0.001830
   40  C  5  Y   -0.000389  -0.000471  -0.003181  -0.000897   0.000202
   41  C  5  Z   -0.000066   0.000057   0.000057  -0.000130   0.000225
   42  C  5  S   -0.019570   0.003050   0.051852   0.004396  -0.094275
   43  C  5  X   -0.013680   0.000668   0.013934  -0.002698  -0.027575
   44  C  5  Y   -0.004522   0.000355   0.024470   0.003424  -0.010090
   45  C  5  Z   -0.001007   0.000013   0.000734  -0.000058  -0.002882
   46  C  6  S   -0.006363  -0.000513   0.034158  -0.108524  -0.640043
   47  C  6  S   -0.001927   0.000264   0.006188  -0.017178  -0.073965
   48  C  6  X    0.000180  -0.000468   0.001531  -0.002063   0.000848
   49  C  6  Y   -0.000072  -0.000361   0.000142  -0.002411  -0.001710
   50  C  6  Z   -0.000055   0.000020   0.000087  -0.000019   0.000163
   51  C  6  S    0.018910  -0.006329  -0.030650   0.042037   0.087597
   52  C  6  X   -0.002633   0.001363  -0.005904   0.013463  -0.006523
   53  C  6  Y    0.012737  -0.005746  -0.016460   0.017967   0.028581
   54  C  6  Z   -0.001074   0.000501   0.000657  -0.000274  -0.002304
   55  H  7  S   -0.000430   0.000025   0.001048  -0.002288   0.000078
   56  H  7  S   -0.002205   0.002300  -0.001038   0.008985  -0.003759
   57  H  8  S   -0.002132   0.000267   0.000666  -0.001336  -0.000302
   58  H  8  S   -0.007376   0.013792  -0.002603   0.005921   0.000113
   59  H  9  S   -0.001826   0.000173   0.000562  -0.000916  -0.000341
   60  H  9  S   -0.007776   0.013318  -0.001215   0.005363  -0.000318
   61  H 10  S    0.001819  -0.000644  -0.001190  -0.000172   0.000277
   62  H 10  S    0.013008   0.008232   0.005002   0.002696   0.000200
   63  H 11  S    0.001916  -0.000734  -0.001342  -0.000430   0.000339
   64  H 11  S    0.012806   0.008957   0.005995   0.001565   0.000190
   65  H 12  S    0.000385  -0.000167  -0.002415  -0.000698  -0.000156
   66  H 12  S    0.003138   0.001077   0.007510   0.005027   0.004433
   67  H 13  S   -0.000726  -0.000183   0.000304  -0.000368  -0.002041
   68  H 13  S   -0.002795   0.000610   0.004463   0.000552   0.002976
   69  H 14  S    0.000542  -0.000489  -0.000482  -0.000019   0.001744
   70  H 14  S    0.002692  -0.000716  -0.002519   0.003686  -0.001639

                      6          7          8          9         10
                  -10.1075    -0.8343    -0.7412    -0.7389    -0.6184
                     A          A          A          A          A   
    1  C  1  S    0.087929  -0.097625   0.016069   0.133167   0.017708
    2  C  1  S    0.005281   0.106377  -0.017709  -0.141423  -0.018706
    3  C  1  X    0.002778  -0.053554   0.061525   0.028703   0.089359
    4  C  1  Y    0.000718   0.015002   0.080036   0.006228   0.135156
    5  C  1  Z    0.000236  -0.007394  -0.001452   0.004875  -0.007077
    6  C  1  S    0.016255   0.179137  -0.036281  -0.300634  -0.056325
    7  C  1  X   -0.014205  -0.006682   0.007782   0.002409   0.033318
    8  C  1  Y   -0.002879  -0.002505  -0.000282   0.008009   0.034606
    9  C  1  Z   -0.001193  -0.001217   0.000415   0.001451  -0.001136
   10  C  2  S    0.017996  -0.092995  -0.120086   0.072046  -0.109953
   11  C  2  S    0.001414   0.090233   0.114752  -0.065805   0.099856
   12  C  2  X    0.000416  -0.033345  -0.019907  -0.028555   0.085292
   13  C  2  Y    0.000968  -0.021641   0.034995   0.061309  -0.033046
   14  C  2  Z    0.000031   0.001480  -0.001303  -0.004991  -0.001166
   15  C  2  S   -0.001515   0.218771   0.327476  -0.211923   0.390751
   16  C  2  X    0.000922  -0.001256   0.005304  -0.005167   0.026218
   17  C  2  Y   -0.000855  -0.006242   0.003182   0.009984  -0.018030
   18  C  2  Z   -0.000195  -0.000073   0.000003   0.000235  -0.002193
   19  C  3  S    0.016331  -0.092851  -0.121943  -0.068951   0.109853
   20  C  3  S    0.001146   0.090112   0.116477   0.062858  -0.099779
   21  C  3  X    0.000511  -0.001798   0.038420  -0.068397   0.071886
   22  C  3  Y    0.000752  -0.039837   0.000070  -0.006633  -0.056740
   23  C  3  Z    0.000003  -0.000303   0.000790  -0.003526  -0.001333
   24  C  3  S   -0.000026   0.218425   0.333027   0.203550  -0.390454
   25  C  3  X   -0.000909  -0.004712   0.000081  -0.011222   0.028812
   26  C  3  Y   -0.000149  -0.004230   0.006197  -0.000763  -0.013573
   27  C  3  Z   -0.000027  -0.000202  -0.000718   0.000595  -0.001025
   28  C  4  S    0.076059  -0.097530   0.012521  -0.133694  -0.017244
   29  C  4  S    0.004508   0.106330  -0.013925   0.142070   0.018198
   30  C  4  X   -0.000763   0.040400   0.038181   0.008500  -0.071192
   31  C  4  Y    0.002619  -0.038482   0.092934  -0.030289  -0.145897
   32  C  4  Z   -0.000153   0.004322   0.000424   0.001940  -0.004921
   33  C  4  S    0.012305   0.178872  -0.028296   0.301621   0.055187
   34  C  4  X    0.003256   0.001095  -0.004366  -0.005639  -0.012744
   35  C  4  Y   -0.011549  -0.006898   0.006602  -0.006167  -0.046430
   36  C  4  Z    0.000659   0.000506   0.000175  -0.000215  -0.001476
   37  C  5  S    0.638586  -0.101691   0.109175  -0.077031  -0.084123
   38  C  5  S    0.067449   0.110734  -0.115988   0.082830   0.088350
   39  C  5  X   -0.000587   0.045624  -0.034993  -0.035528  -0.068715
   40  C  5  Y    0.000415   0.037587   0.014551   0.090740   0.059864
   41  C  5  Z   -0.000016   0.004730  -0.006046  -0.004695  -0.008408
   42  C  5  S   -0.038092   0.189977  -0.252035   0.177117   0.236705
   43  C  5  X    0.004023   0.012153  -0.003524   0.000502  -0.023895
   44  C  5  Y   -0.007310   0.005647  -0.001015   0.005000   0.019696
   45  C  5  Z    0.000304   0.001610  -0.002113   0.001138  -0.002101
   46  C  6  S    0.741297  -0.101760   0.111132   0.074073   0.084033
   47  C  6  S    0.079232   0.110822  -0.118097  -0.079731  -0.088212
   48  C  6  X    0.000530   0.009193   0.027993  -0.096810  -0.086557
   49  C  6  Y   -0.000038   0.058579  -0.023401  -0.015092   0.028674
   50  C  6  Z    0.000072  -0.002798   0.003289  -0.007119  -0.011968
   51  C  6  S   -0.051412   0.189859  -0.256481  -0.170020  -0.236325
   52  C  6  X   -0.007413  -0.001440   0.000802  -0.003800  -0.028987
   53  C  6  Y   -0.004425   0.013336  -0.003804  -0.002837   0.010243
   54  C  6  Z   -0.000345  -0.000609   0.000353  -0.000769  -0.004895
   55  H  7  S   -0.000570   0.035128  -0.005483  -0.069746  -0.009992
   56  H  7  S    0.004697  -0.005955  -0.002363  -0.010823  -0.005311
   57  H  8  S   -0.000113   0.038128   0.063824  -0.038045   0.084078
   58  H  8  S    0.000406  -0.008837   0.002670   0.003889   0.024204
   59  H  9  S   -0.000123   0.036678   0.064717  -0.037491   0.084650
   60  H  9  S    0.001039  -0.008609   0.004591   0.001234   0.026594
   61  H 10  S   -0.000171   0.036634   0.065086   0.035881  -0.083578
   62  H 10  S    0.000769  -0.008725   0.004110  -0.001467  -0.025648
   63  H 11  S   -0.000123   0.037790   0.065163   0.036011  -0.084620
   64  H 11  S    0.000502  -0.008612   0.003085  -0.003883  -0.025095
   65  H 12  S   -0.000545   0.035112  -0.003684   0.070002   0.009565
   66  H 12  S    0.004118  -0.006101  -0.002217   0.010814   0.005149
   67  H 13  S   -0.001875   0.035876  -0.055093   0.038035   0.068950
   68  H 13  S    0.008768  -0.002983  -0.009337   0.005584   0.029106
   69  H 14  S   -0.002158   0.035905  -0.056066  -0.036510  -0.068935
   70  H 14  S    0.009142  -0.002991  -0.009487  -0.005207  -0.029225

                     11         12         13         14         15
                   -0.5881    -0.5048    -0.4651    -0.4522    -0.4297
                     A          A          A          A          A   
    1  C  1  S   -0.109160   0.008736   0.063237   0.031266   0.006444
    2  C  1  S    0.111771  -0.005841  -0.062012  -0.030248  -0.002613
    3  C  1  X    0.046425  -0.155432  -0.111564  -0.049904  -0.152441
    4  C  1  Y   -0.032983   0.095499  -0.001789   0.022699  -0.198878
    5  C  1  Z    0.006620  -0.024434  -0.048837   0.067054   0.012109
    6  C  1  S    0.337986  -0.048227  -0.255547  -0.131965  -0.040248
    7  C  1  X    0.009544  -0.095380  -0.051699  -0.022443  -0.077798
    8  C  1  Y   -0.001011   0.066330  -0.012130   0.007154  -0.114412
    9  C  1  Z   -0.000093  -0.015368  -0.029925   0.049666   0.009192
   10  C  2  S    0.040922   0.004365  -0.047018  -0.023637  -0.001688
   11  C  2  S   -0.038157  -0.000917   0.039537   0.019932   0.000415
   12  C  2  X    0.019724  -0.117373   0.064054   0.037114  -0.057885
   13  C  2  Y   -0.114240  -0.058183   0.058945   0.045308   0.212419
   14  C  2  Z    0.009404  -0.006298  -0.126241   0.232587  -0.004403
   15  C  2  S   -0.143571  -0.029069   0.219851   0.111276   0.003961
   16  C  2  X    0.012412  -0.077183   0.027951   0.017392  -0.042141
   17  C  2  Y   -0.046393  -0.034691   0.033984   0.027157   0.143504
   18  C  2  Z    0.004367  -0.005938  -0.089063   0.171094  -0.001883
   19  C  3  S    0.041338   0.004531   0.047028   0.023585  -0.001316
   20  C  3  S   -0.038444  -0.001002  -0.039694  -0.019548   0.000070
   21  C  3  X   -0.108678   0.009081  -0.023330  -0.017680   0.212145
   22  C  3  Y   -0.041059  -0.130522  -0.086484  -0.051623   0.054944
   23  C  3  Z   -0.003901   0.001225  -0.117996   0.237121   0.005301
   24  C  3  S   -0.145526  -0.030123  -0.219134  -0.112610   0.002259
   25  C  3  X   -0.046668   0.009077  -0.018694  -0.012005   0.145117
   26  C  3  Y   -0.012639  -0.083821  -0.042376  -0.025843   0.034635
   27  C  3  Z   -0.002168   0.002192  -0.083814   0.174333   0.003428
   28  C  4  S   -0.109171   0.008274  -0.063165  -0.031346   0.005422
   29  C  4  S    0.111789  -0.005361   0.061882   0.030329  -0.001604
   30  C  4  X   -0.052500   0.162114  -0.061237  -0.034683  -0.092805
   31  C  4  Y    0.022891  -0.084448   0.096830   0.037970  -0.234155
   32  C  4  Z   -0.004394   0.013559  -0.040272   0.072847  -0.007082
   33  C  4  S    0.338240  -0.046574   0.255838   0.131862  -0.035796
   34  C  4  X   -0.005754   0.106231  -0.020063  -0.010034  -0.058076
   35  C  4  Y    0.007493  -0.048005   0.050451   0.019836  -0.126558
   36  C  4  Z    0.000155   0.008613  -0.025515   0.052766  -0.004861
   37  C  5  S    0.062503   0.008802   0.066972   0.032001  -0.005264
   38  C  5  S   -0.063830  -0.005193  -0.067138  -0.031221   0.006586
   39  C  5  X   -0.059406   0.173270   0.085234   0.050179  -0.117156
   40  C  5  Y    0.172498   0.103148   0.036173   0.027518   0.218933
   41  C  5  Z   -0.012342   0.010882  -0.010117   0.047501  -0.018541
   42  C  5  S   -0.196791  -0.045745  -0.267818  -0.135340   0.007707
   43  C  5  X   -0.029918   0.104534   0.030962   0.017993  -0.065863
   44  C  5  Y    0.062262   0.067080   0.017123   0.012445   0.125551
   45  C  5  Z   -0.006173   0.006193  -0.011226   0.033766  -0.010321
   46  C  6  S    0.062703   0.008360  -0.066931  -0.032000  -0.005965
   47  C  6  S   -0.064052  -0.004737   0.067002   0.031323   0.007196
   48  C  6  X    0.178395   0.001701   0.016094  -0.011626   0.245700
   49  C  6  Y    0.036571   0.201032  -0.097593  -0.048505   0.006546
   50  C  6  Z    0.014397  -0.015281  -0.009431   0.045459   0.028591
   51  C  6  S   -0.197250  -0.044204   0.267842   0.135810   0.011302
   52  C  6  X    0.068695   0.005076   0.002755  -0.008254   0.140916
   53  C  6  Y    0.005970   0.123769  -0.039212  -0.015879   0.005137
   54  C  6  Z    0.006599  -0.009081  -0.010162   0.032902   0.016728
   55  H  7  S    0.106662  -0.106853  -0.119977  -0.057624  -0.023801
   56  H  7  S    0.055993  -0.070717  -0.088154  -0.043466  -0.024440
   57  H  8  S   -0.035531  -0.038384   0.127065  -0.091227   0.010910
   58  H  8  S   -0.017044  -0.028899   0.091075  -0.079836   0.012615
   59  H  9  S   -0.038231  -0.056136   0.015070   0.149874   0.028859
   60  H  9  S   -0.018194  -0.040389   0.000111   0.118340   0.027078
   61  H 10  S   -0.038288  -0.051053  -0.013953  -0.154137   0.022455
   62  H 10  S   -0.018721  -0.036839   0.000350  -0.122561   0.021820
   63  H 11  S   -0.036161  -0.044358  -0.124091   0.088430   0.015944
   64  H 11  S   -0.016855  -0.033013  -0.088328   0.077385   0.016724
   65  H 12  S    0.106682  -0.106033   0.121005   0.056781  -0.024400
   66  H 12  S    0.056017  -0.070184   0.088719   0.043275  -0.025081
   67  H 13  S   -0.065657  -0.115999  -0.116405  -0.067232  -0.007639
   68  H 13  S   -0.035631  -0.078881  -0.083758  -0.051488  -0.007893
   69  H 14  S   -0.065852  -0.115459   0.119505   0.062805  -0.004097
   70  H 14  S   -0.035694  -0.078547   0.086065   0.048002  -0.004897

                     16         17         18         19         20
                   -0.4103    -0.3846    -0.3611    -0.3269    -0.3178
                     A          A          A          A          A   
    1  C  1  S    0.026491   0.002239   0.002995  -0.007151   0.005152
    2  C  1  S   -0.031010  -0.002073  -0.003735   0.004710  -0.007268
    3  C  1  X    0.238286  -0.003934   0.002793   0.079998   0.143993
    4  C  1  Y   -0.104845  -0.060294  -0.024062   0.233758  -0.098962
    5  C  1  Z    0.037069   0.005766  -0.110915  -0.021588   0.041848
    6  C  1  S   -0.090747  -0.022398  -0.008729   0.035983  -0.008502
    7  C  1  X    0.154677   0.029612   0.000819   0.043448   0.125728
    8  C  1  Y   -0.073875  -0.008688  -0.019255   0.161789  -0.086244
    9  C  1  Z    0.025735   0.004689  -0.095551  -0.017954   0.036145
   10  C  2  S    0.010311   0.026115   0.003289  -0.006592  -0.003554
   11  C  2  S   -0.009272  -0.024837  -0.003526   0.007502   0.003178
   12  C  2  X    0.058908   0.255058   0.041472  -0.094518  -0.189858
   13  C  2  Y    0.080109   0.057228  -0.027267  -0.206257   0.147350
   14  C  2  Z   -0.008775   0.013771  -0.258235   0.016019  -0.052299
   15  C  2  S   -0.043237  -0.106615  -0.010353   0.021796   0.008952
   16  C  2  X    0.056673   0.182954   0.033392  -0.091697  -0.159215
   17  C  2  Y    0.032001   0.059764  -0.023813  -0.161927   0.110939
   18  C  2  Z   -0.004990   0.008398  -0.213652   0.012196  -0.043407
   19  C  3  S   -0.010449   0.025992   0.001118   0.006550  -0.003096
   20  C  3  S    0.009473  -0.024801  -0.001717  -0.007505   0.002578
   21  C  3  X   -0.040505  -0.079437  -0.038140   0.129508   0.225916
   22  C  3  Y   -0.095190   0.248276   0.031053   0.185329  -0.084632
   23  C  3  Z   -0.021477  -0.022292   0.258529   0.000910   0.025166
   24  C  3  S    0.043521  -0.105933   0.000757  -0.021322   0.007678
   25  C  3  X    0.000227  -0.040493  -0.028146   0.092711   0.177239
   26  C  3  Y   -0.067971   0.187881   0.023064   0.160684  -0.080217
   27  C  3  Z   -0.015830  -0.015894   0.214017  -0.000444   0.023643
   28  C  4  S   -0.026789   0.002036   0.001548   0.007075   0.005731
   29  C  4  S    0.031302  -0.001924  -0.001156  -0.004700  -0.007551
   30  C  4  X    0.215563  -0.049683   0.000367  -0.160307  -0.165889
   31  C  4  Y   -0.147759  -0.034820  -0.026154  -0.186918   0.073498
   32  C  4  Z    0.014037  -0.005903   0.112044  -0.015750   0.017093
   33  C  4  S    0.091944  -0.020869  -0.009646  -0.035199  -0.013764
   34  C  4  X    0.144940  -0.022088  -0.001342  -0.116882  -0.146112
   35  C  4  Y   -0.093325   0.020382  -0.015864  -0.119657   0.065351
   36  C  4  Z    0.009025  -0.005230   0.096129  -0.013114   0.017201
   37  C  5  S   -0.009998  -0.022962  -0.002706   0.003414  -0.002862
   38  C  5  S    0.013406   0.026542   0.002919   0.000540   0.002446
   39  C  5  X    0.105632   0.206148  -0.012605   0.065856   0.173363
   40  C  5  Y    0.157752   0.044176   0.026799   0.166851  -0.102725
   41  C  5  Z    0.006038   0.017635   0.038968  -0.001361   0.057919
   42  C  5  S    0.025049   0.094160   0.010661  -0.033842   0.018690
   43  C  5  X    0.092726   0.131011  -0.007267   0.067189   0.135307
   44  C  5  Y    0.060997   0.053454   0.015855   0.119915  -0.048336
   45  C  5  Z    0.007689   0.010981   0.028298   0.000113   0.048259
   46  C  6  S    0.010238  -0.023023   0.000235  -0.003243  -0.002707
   47  C  6  S   -0.013720   0.026548   0.000024  -0.000678   0.002396
   48  C  6  X   -0.087397  -0.066750   0.022352  -0.109520  -0.182976
   49  C  6  Y   -0.171786   0.198704  -0.009690  -0.142875   0.101077
   50  C  6  Z    0.010288  -0.020778  -0.039152  -0.004931   0.005171
   51  C  6  S   -0.025335   0.094947  -0.005605   0.032774   0.016478
   52  C  6  X   -0.008519  -0.020057   0.014098  -0.069026  -0.116427
   53  C  6  Y   -0.111094   0.139569  -0.010941  -0.120068   0.093970
   54  C  6  Z    0.011290  -0.012857  -0.028327  -0.001794   0.010087
   55  H  7  S    0.149138   0.018914  -0.004936  -0.037933   0.151227
   56  H  7  S    0.142353   0.017176  -0.005182  -0.040577   0.161702
   57  H  8  S    0.024827   0.062901   0.174081  -0.070396  -0.013084
   58  H  8  S    0.028487   0.073206   0.171261  -0.078350  -0.014212
   59  H  9  S    0.029540   0.103848  -0.134332  -0.089500  -0.074773
   60  H  9  S    0.031915   0.111191  -0.129224  -0.099193  -0.082025
   61  H 10  S   -0.021149   0.102105  -0.135357   0.089701  -0.056704
   62  H 10  S   -0.024835   0.109755  -0.131537   0.099982  -0.059071
   63  H 11  S   -0.036761   0.065058   0.174189   0.070018  -0.030664
   64  H 11  S   -0.038766   0.074992   0.170626   0.077593  -0.034326
   65  H 12  S   -0.148358   0.018591  -0.018495   0.037246   0.151188
   66  H 12  S   -0.141698   0.016844  -0.019624   0.039967   0.161593
   67  H 13  S   -0.105758  -0.118318  -0.001443  -0.128505  -0.079770
   68  H 13  S   -0.097986  -0.120150  -0.002947  -0.132690  -0.083097
   69  H 14  S    0.106387  -0.117412   0.003933   0.129296  -0.079387
   70  H 14  S    0.098667  -0.119117   0.002140   0.133491  -0.083090

                     21         22         23         24         25
                   -0.3056    -0.1982    -0.0106     0.1132     0.1183
                     A          A          A          A          A   
    1  C  1  S   -0.002999  -0.000808  -0.000447  -0.035391  -0.018782
    2  C  1  S    0.002396   0.000648  -0.001313   0.036504   0.014243
    3  C  1  X   -0.036493   0.027677  -0.028544   0.077962   0.010571
    4  C  1  Y    0.034719  -0.024753   0.030795  -0.037346  -0.002220
    5  C  1  Z    0.167841  -0.271384   0.292738  -0.061687   0.207928
    6  C  1  S    0.019672   0.006568   0.010865   0.339822   0.210226
    7  C  1  X   -0.038134   0.030073  -0.043174   0.220868   0.065609
    8  C  1  Y    0.035466  -0.020851   0.062401  -0.136625  -0.024042
    9  C  1  Z    0.159385  -0.304166   0.483633  -0.112401   0.408512
   10  C  2  S   -0.001041  -0.001017  -0.001614  -0.069854  -0.016235
   11  C  2  S    0.001645   0.002279  -0.000013   0.036649   0.009733
   12  C  2  X    0.020497  -0.011564  -0.003623   0.086726   0.019921
   13  C  2  Y   -0.030021   0.011337   0.005546   0.052862   0.015721
   14  C  2  Z   -0.067979   0.085983  -0.008523  -0.001951   0.014018
   15  C  2  S    0.002919  -0.001613   0.017583   0.858828   0.182900
   16  C  2  X    0.025941  -0.004608  -0.016449   0.334126   0.047833
   17  C  2  Y   -0.013526   0.016391   0.036924   0.145227   0.051816
   18  C  2  Z   -0.045104   0.082793   0.020365  -0.054054   0.135194
   19  C  3  S    0.001797  -0.003573   0.005468  -0.069695  -0.017798
   20  C  3  S   -0.002385   0.003375  -0.003319   0.036709   0.009659
   21  C  3  X   -0.027788   0.014253  -0.010676   0.006803  -0.012168
   22  C  3  Y    0.018766  -0.011175   0.005839   0.100462   0.027797
   23  C  3  Z   -0.077096  -0.086202  -0.008333   0.006634  -0.011245
   24  C  3  S   -0.003290   0.021530  -0.048748   0.853598   0.210296
   25  C  3  X   -0.026406   0.016220  -0.040473  -0.024268  -0.032945
   26  C  3  Y    0.006727  -0.005244  -0.003865   0.356597   0.067668
   27  C  3  Z   -0.052339  -0.083485   0.022983   0.069330  -0.123506
   28  C  4  S    0.001376  -0.001706  -0.000086  -0.034585  -0.020194
   29  C  4  S   -0.000468   0.002331   0.000417   0.035266   0.018404
   30  C  4  X    0.003153  -0.016469  -0.022286  -0.065901  -0.026782
   31  C  4  Y   -0.006698   0.003722   0.001985   0.047763   0.009364
   32  C  4  Z    0.173130   0.273155   0.295406   0.070836  -0.206522
   33  C  4  S   -0.015795   0.008169  -0.000434   0.337712   0.198863
   34  C  4  X   -0.002367  -0.020704  -0.042126  -0.211951  -0.116239
   35  C  4  Y   -0.004362   0.005077  -0.007842   0.122723   0.049210
   36  C  4  Z    0.164322   0.305137   0.487856   0.137359  -0.405246
   37  C  5  S    0.001213   0.000828  -0.000856  -0.036856  -0.015493
   38  C  5  S   -0.001588  -0.001080   0.001061   0.028108   0.010597
   39  C  5  X   -0.050631  -0.021168   0.017802  -0.049277  -0.075700
   40  C  5  Y    0.021106   0.006616  -0.001915  -0.038836  -0.014762
   41  C  5  Z    0.272900   0.207639  -0.205190  -0.126757   0.298127
   42  C  5  S   -0.000231   0.000377   0.000701   0.397956   0.194014
   43  C  5  X   -0.040513  -0.019778   0.036425  -0.153549  -0.170901
   44  C  5  Y    0.017810   0.004251  -0.019509  -0.119677  -0.051955
   45  C  5  Z    0.257398   0.239014  -0.334184  -0.258991   0.596052
   46  C  6  S    0.001899   0.000317   0.001780  -0.034146  -0.021770
   47  C  6  S   -0.001435   0.000233  -0.002977   0.025928   0.015739
   48  C  6  X   -0.006524   0.022357   0.020684  -0.006285   0.019136
   49  C  6  Y    0.010225  -0.015858  -0.020208  -0.063105  -0.070727
   50  C  6  Z    0.278265  -0.207370  -0.203717   0.122736  -0.299246
   51  C  6  S   -0.014100  -0.006043  -0.006408   0.376028   0.238515
   52  C  6  X   -0.012875   0.029853   0.044453  -0.024295   0.031180
   53  C  6  Y    0.003811  -0.021975  -0.027369  -0.187216  -0.191529
   54  C  6  Z    0.261280  -0.237101  -0.332674   0.256029  -0.595814
   55  H  7  S   -0.019964   0.000581   0.000991  -0.037823  -0.018869
   56  H  7  S   -0.021327   0.002369   0.002443  -0.531762  -0.272837
   57  H  8  S    0.057761  -0.089076   0.061795  -0.044353   0.053573
   58  H  8  S    0.068082  -0.127176   0.167349  -0.651511   0.106569
   59  H  9  S   -0.044469   0.073035  -0.053020  -0.018347  -0.058169
   60  H  9  S   -0.064739   0.094294  -0.148696  -0.602018  -0.340811
   61  H 10  S    0.062697   0.074980   0.058316  -0.012072  -0.059644
   62  H 10  S    0.084275   0.095633   0.173644  -0.547920  -0.346874
   63  H 11  S   -0.049502  -0.087971  -0.059092  -0.048828   0.048206
   64  H 11  S   -0.060067  -0.127507  -0.147662  -0.689556   0.059324
   65  H 12  S   -0.019075  -0.001523  -0.001065  -0.034918  -0.026687
   66  H 12  S   -0.021691  -0.003317  -0.000141  -0.515106  -0.320925
   67  H 13  S    0.012604   0.001291  -0.001601  -0.043061  -0.025494
   68  H 13  S    0.014586   0.002182  -0.002385  -0.508438  -0.307863
   69  H 14  S    0.008605  -0.002755   0.004944  -0.041240  -0.029299
   70  H 14  S    0.007706  -0.004361   0.014812  -0.498567  -0.328887

                     26         27         28         29         30
                    0.1494     0.1533     0.1720     0.1948     0.2007
                     A          A          A          A          A   
    1  C  1  S   -0.011623   0.003287   0.046813  -0.114139   0.007498
    2  C  1  S   -0.006209   0.000395  -0.028520   0.051755   0.009992
    3  C  1  X    0.055489  -0.022162  -0.178526   0.102728  -0.018009
    4  C  1  Y   -0.084989   0.001598   0.097943   0.045596  -0.050507
    5  C  1  Z   -0.049096   0.043634  -0.044987  -0.005695  -0.008047
    6  C  1  S    0.222244  -0.085241  -0.657408   1.527515  -0.077729
    7  C  1  X    0.209365  -0.013706  -0.562007   0.354702  -0.171917
    8  C  1  Y   -0.134843   0.032216   0.318275   0.119411  -0.348589
    9  C  1  Z   -0.129061   0.180104  -0.149749  -0.015476   0.000593
   10  C  2  S    0.042939   0.010913   0.008161   0.067467  -0.145672
   11  C  2  S   -0.011699  -0.002507   0.011882  -0.026904   0.045675
   12  C  2  X   -0.095739  -0.074466  -0.124620  -0.021736  -0.002377
   13  C  2  Y   -0.081134  -0.050867   0.012120   0.109731   0.083736
   14  C  2  Z    0.102789  -0.220451   0.047498  -0.002829  -0.004183
   15  C  2  S   -0.684546  -0.206538  -0.284772  -0.902924   2.030172
   16  C  2  X   -0.346380  -0.271739  -0.215656  -0.171858  -0.171546
   17  C  2  Y   -0.185505  -0.175335   0.024775   0.480698   0.381859
   18  C  2  Z    0.323390  -0.702154   0.149124  -0.019252  -0.013982
   19  C  3  S    0.042111   0.015785  -0.007986   0.066349   0.145599
   20  C  3  S   -0.011793  -0.003646  -0.011755  -0.027098  -0.045689
   21  C  3  X   -0.013739  -0.019820  -0.072253   0.108365  -0.073035
   22  C  3  Y   -0.151680  -0.022951   0.101224   0.036441  -0.039637
   23  C  3  Z    0.077962  -0.231803   0.056121  -0.012680   0.002643
   24  C  3  S   -0.679834  -0.248686   0.280421  -0.883544  -2.026471
   25  C  3  X    0.023726  -0.012016  -0.127157   0.517614  -0.414945
   26  C  3  Y   -0.507057  -0.047719   0.175075   0.087503  -0.040520
   27  C  3  Z    0.247478  -0.736634   0.182571  -0.030375   0.005808
   28  C  4  S   -0.007194  -0.008954  -0.045607  -0.115142  -0.008240
   29  C  4  S   -0.005949  -0.002590   0.027415   0.052026  -0.009457
   30  C  4  X   -0.065451  -0.073481  -0.178118  -0.015941   0.033748
   31  C  4  Y   -0.007412   0.015167   0.104158   0.113068   0.041810
   32  C  4  Z    0.008337   0.069870  -0.024718   0.006171  -0.010984
   33  C  4  S    0.130563   0.184672   0.645044   1.544208   0.087417
   34  C  4  X   -0.138862  -0.163155  -0.566798  -0.088371   0.212403
   35  C  4  Y    0.085475   0.074132   0.322157   0.370627   0.326284
   36  C  4  Z   -0.017894   0.234510  -0.098139   0.020955  -0.016751
   37  C  5  S   -0.037181  -0.020154  -0.021004   0.045820  -0.056039
   38  C  5  S    0.012885   0.007214   0.004186  -0.025894   0.024127
   39  C  5  X   -0.108691  -0.071633  -0.117391   0.068166   0.003353
   40  C  5  Y   -0.098768  -0.042252  -0.029449  -0.008459  -0.038329
   41  C  5  Z   -0.051560  -0.031174  -0.010829  -0.007701   0.008847
   42  C  5  S    0.561148   0.297064   0.432325  -0.588494   0.819336
   43  C  5  X   -0.316216  -0.188010  -0.201038   0.280592   0.024136
   44  C  5  Y   -0.206746  -0.121635  -0.150697  -0.103704  -0.121208
   45  C  5  Z   -0.100726  -0.121501  -0.005776  -0.005639   0.034157
   46  C  6  S   -0.038811  -0.012211   0.021112   0.045659   0.056512
   47  C  6  S    0.013407   0.003321  -0.004224  -0.025610  -0.023764
   48  C  6  X   -0.022067  -0.016176  -0.034866  -0.041130   0.035485
   49  C  6  Y   -0.156727  -0.045602   0.118732   0.056852   0.017814
   50  C  6  Z    0.064493   0.014581  -0.002077   0.005999  -0.002839
   51  C  6  S    0.583223   0.204751  -0.436072  -0.589877  -0.828309
   52  C  6  X   -0.017931   0.009904   0.027521  -0.229802   0.117077
   53  C  6  Y   -0.412174  -0.111953   0.256624   0.194128   0.042623
   54  C  6  Z    0.163381  -0.013203   0.015370  -0.002932   0.002993
   55  H  7  S   -0.032668   0.002620   0.055671  -0.031947   0.039809
   56  H  7  S   -0.406770   0.058113   1.144458  -0.927339   0.047846
   57  H  8  S    0.034329  -0.051636   0.024725  -0.018248  -0.007762
   58  H  8  S    0.825145  -0.593888   0.431605   0.242953  -0.765994
   59  H  9  S    0.006219   0.071994   0.005514  -0.022733  -0.005319
   60  H  9  S    0.252259   1.057934   0.138311   0.184904  -0.795867
   61  H 10  S    0.055004  -0.049031  -0.000830  -0.024864   0.005370
   62  H 10  S    0.907749  -0.648857  -0.085137   0.145978   0.791883
   63  H 11  S   -0.008586   0.059612  -0.028982  -0.014824   0.007515
   64  H 11  S    0.250033   0.961449  -0.474986   0.279209   0.760795
   65  H 12  S   -0.021638  -0.022023  -0.055277  -0.031842  -0.040134
   66  H 12  S   -0.263087  -0.310537  -1.135012  -0.947288  -0.053618
   67  H 13  S   -0.047422  -0.026939  -0.024275   0.026612  -0.002351
   68  H 13  S   -0.785744  -0.447998  -0.538974   0.509075  -0.369706
   69  H 14  S   -0.052276  -0.012570   0.024596   0.026803   0.002602
   70  H 14  S   -0.853359  -0.245815   0.547302   0.516158   0.378661

                     31         32         33         34         35
                    0.2250     0.2570     0.2595     0.2828     0.2972
                     A          A          A          A          A   
    1  C  1  S   -0.063532   0.011176   0.020652  -0.034303   0.067993
    2  C  1  S    0.046754   0.018960  -0.011066   0.008779  -0.025330
    3  C  1  X    0.043547  -0.050931   0.005051  -0.096368  -0.043552
    4  C  1  Y   -0.052573   0.032556  -0.030734   0.257164  -0.102182
    5  C  1  Z    0.011182   0.001262  -0.034415  -0.036828   0.025349
    6  C  1  S    0.543184  -0.503750  -0.296469   0.436625  -1.227271
    7  C  1  X    0.415234   0.070705   0.034314  -0.429189  -0.198843
    8  C  1  Y   -0.403242   0.286851  -0.192709   1.257971  -0.442624
    9  C  1  Z    0.065067   0.025654  -0.304058  -0.214547   0.084608
   10  C  2  S    0.035775   0.052620  -0.012620   0.054608  -0.018567
   11  C  2  S   -0.041782  -0.016353   0.004661  -0.006597   0.017394
   12  C  2  X   -0.056981   0.292160   0.007582   0.015061  -0.000587
   13  C  2  Y    0.025260  -0.037319   0.008335   0.108365  -0.265938
   14  C  2  Z    0.011845  -0.013737   0.307365   0.032407   0.008535
   15  C  2  S   -0.227890  -0.672342   0.175518  -0.973105   0.087324
   16  C  2  X   -0.450844   1.292488   0.016727   0.147399   0.085182
   17  C  2  Y   -0.054726  -0.208451  -0.073262   0.864921  -1.106936
   18  C  2  Z    0.055651  -0.024695   1.220381   0.070742   0.028667
   19  C  3  S   -0.035553  -0.053751  -0.006678   0.055758   0.018103
   20  C  3  S    0.041622   0.016513  -0.001591  -0.007364  -0.017621
   21  C  3  X   -0.049447   0.177589   0.004366   0.086852   0.226821
   22  C  3  Y    0.037196  -0.231821   0.014984   0.069347   0.134976
   23  C  3  Z   -0.007966  -0.015653  -0.305302  -0.036343   0.020678
   24  C  3  S    0.223583   0.694339   0.131705  -0.985826  -0.075651
   25  C  3  X   -0.177623   0.821909  -0.059905   0.675922   0.992491
   26  C  3  Y    0.416357  -1.007537  -0.050149   0.568791   0.484073
   27  C  3  Z   -0.028726  -0.040513  -1.209748  -0.098629   0.067360
   28  C  4  S    0.063953  -0.010254   0.010002  -0.035830  -0.069081
   29  C  4  S   -0.046863  -0.019623  -0.002977   0.010186   0.025924
   30  C  4  X    0.067210  -0.050784  -0.032857   0.272512   0.066626
   31  C  4  Y   -0.010367   0.023977  -0.000672   0.049147   0.086734
   32  C  4  Z    0.005559  -0.004963   0.037353   0.017200   0.008467
   33  C  4  S   -0.551393   0.490821  -0.172737   0.454283   1.248433
   34  C  4  X    0.555339  -0.204963  -0.211320   1.310215   0.283899
   35  C  4  Y   -0.149494  -0.225246   0.007570   0.283893   0.378196
   36  C  4  Z    0.037473   0.012154   0.313601   0.134692   0.004608
   37  C  5  S   -0.102139   0.000826  -0.001637  -0.018551  -0.060729
   38  C  5  S    0.080342   0.000373   0.001162  -0.002329   0.013266
   39  C  5  X   -0.050518  -0.103641   0.038680  -0.142617   0.177896
   40  C  5  Y   -0.074193  -0.134703   0.014132  -0.031041  -0.119440
   41  C  5  Z    0.004863  -0.009625  -0.052556  -0.017014   0.031664
   42  C  5  S    1.020045  -0.057412   0.009768   0.554293   1.113086
   43  C  5  X   -0.541277  -0.464958   0.151484  -0.565910   0.978403
   44  C  5  Y   -0.478437  -0.611409   0.080034  -0.179168  -0.678759
   45  C  5  Z   -0.012021  -0.023466  -0.171706  -0.062847   0.145765
   46  C  6  S    0.102082  -0.000682  -0.002072  -0.017820   0.061841
   47  C  6  S   -0.080502   0.000085   0.005373  -0.002041  -0.013925
   48  C  6  X    0.039248   0.064025   0.003450   0.047774   0.192503
   49  C  6  Y    0.082201   0.156893   0.030490  -0.139659  -0.095636
   50  C  6  Z   -0.002149  -0.021206   0.054896   0.019069   0.017422
   51  C  6  S   -1.018535   0.047905  -0.047178   0.531713  -1.133913
   52  C  6  X    0.144449   0.287948   0.039201   0.139641   1.070486
   53  C  6  Y    0.713896   0.705741   0.078774  -0.590374  -0.507973
   54  C  6  Z   -0.048068  -0.042563   0.178085   0.089061   0.105822
   55  H  7  S   -0.041900  -0.040528  -0.004764  -0.004861  -0.077661
   56  H  7  S   -0.840234   0.194133   0.027068   0.901328   0.218188
   57  H  8  S    0.019995  -0.045747   0.024321  -0.043132   0.006641
   58  H  8  S    0.431885  -0.462442   1.112687   0.117841   0.136173
   59  H  9  S    0.024501  -0.048228  -0.011419  -0.063268  -0.013702
   60  H  9  S    0.371718  -0.494181  -1.070328  -0.232622   0.262352
   61  H 10  S   -0.026068   0.045546  -0.010588  -0.061792   0.010734
   62  H 10  S   -0.430234   0.437847  -1.069736  -0.219693  -0.185116
   63  H 11  S   -0.018623   0.050003   0.022947  -0.045336  -0.001448
   64  H 11  S   -0.362247   0.501299   1.102137   0.097978  -0.223148
   65  H 12  S    0.041480   0.040997  -0.002567  -0.004344   0.078602
   66  H 12  S    0.835981  -0.174856  -0.096952   0.885685  -0.223634
   67  H 13  S   -0.043701  -0.006809  -0.001505   0.045273   0.051385
   68  H 13  S   -1.185688  -0.750275   0.160121  -0.699155   0.162718
   69  H 14  S    0.043772   0.006108  -0.007051   0.044348  -0.051999
   70  H 14  S    1.193423   0.748868   0.077230  -0.705716  -0.164927

                     36         37         38         39         40
                    0.3756     0.4971     0.5743     0.6769     0.6864
                     A          A          A          A          A   
    1  C  1  S    0.067951  -0.079421  -0.075990   0.010312   0.002526
    2  C  1  S   -0.022612   0.025797   0.010974   0.080672   0.029435
    3  C  1  X    0.214484  -0.029868  -0.153497  -0.291335  -0.096061
    4  C  1  Y    0.094924   0.247693  -0.073209  -0.179120   0.049653
    5  C  1  Z    0.015534  -0.040827   0.008981  -0.083357   0.421904
    6  C  1  S   -1.568638   1.285300   2.370939   0.079208  -0.075353
    7  C  1  X    1.535973  -0.744687  -2.222726   0.488035   0.172065
    8  C  1  Y    0.779568   1.416650  -1.273177   0.312994  -0.057600
    9  C  1  Z    0.110594  -0.215699  -0.094074   0.051908  -0.197402
   10  C  2  S    0.011229   0.064542   0.036136  -0.013833  -0.001987
   11  C  2  S    0.002769  -0.013049  -0.033289   0.055921  -0.004128
   12  C  2  X   -0.073564   0.014419   0.177261  -0.348570  -0.003837
   13  C  2  Y    0.042986   0.159333  -0.180213   0.007617   0.028141
   14  C  2  Z   -0.019297  -0.020960  -0.006057  -0.074033   0.298495
   15  C  2  S   -0.435129  -1.247988  -0.318945  -0.052502   0.110553
   16  C  2  X   -0.257499   0.583817   1.004999   0.284010  -0.066179
   17  C  2  Y    0.090533   1.283501  -0.600630   0.018287  -0.083729
   18  C  2  Z   -0.100614  -0.114042   0.072253   0.098468  -0.384375
   19  C  3  S    0.010859  -0.064637  -0.035999  -0.013949  -0.002835
   20  C  3  S    0.003212   0.013030   0.033322   0.052313   0.022627
   21  C  3  X    0.077935  -0.131491   0.246045   0.178105   0.070467
   22  C  3  Y   -0.043334  -0.093103  -0.066369  -0.279581  -0.091574
   23  C  3  Z    0.021359  -0.007246  -0.018836  -0.046744   0.306359
   24  C  3  S   -0.429448   1.248934   0.313799  -0.011682  -0.119947
   25  C  3  X    0.225655  -0.817573   1.029320  -0.127346  -0.040046
   26  C  3  Y   -0.177915  -1.154943  -0.562590   0.210080   0.149385
   27  C  3  Z    0.079094  -0.051745   0.046227   0.054274  -0.394217
   28  C  4  S    0.067050   0.079232   0.076593   0.010598   0.001179
   29  C  4  S   -0.023064  -0.025922  -0.012866   0.084409   0.010771
   30  C  4  X   -0.028560  -0.229544  -0.014238   0.023716  -0.069203
   31  C  4  Y    0.233808  -0.101886   0.173726  -0.333480  -0.086963
   32  C  4  Z   -0.005964  -0.031580   0.000110  -0.065001   0.431055
   33  C  4  S   -1.538526  -1.278488  -2.378116   0.042885   0.086567
   34  C  4  X   -0.115290  -1.604598  -0.036597  -0.024729   0.114128
   35  C  4  Y    1.704574  -0.085677   2.567809   0.582378   0.125869
   36  C  4  Z   -0.060362  -0.136045  -0.034598   0.022937  -0.213311
   37  C  5  S   -0.076674  -0.100301  -0.073530  -0.011475   0.002745
   38  C  5  S    0.008551   0.031631   0.014322   0.096348   0.015187
   39  C  5  X    0.020709   0.245191  -0.036089   0.027174  -0.068172
   40  C  5  Y    0.119817  -0.024985   0.261118   0.392876   0.109071
   41  C  5  Z    0.005888   0.018338  -0.024957  -0.085095   0.373819
   42  C  5  S    1.995600   2.050378   2.000369   0.160740  -0.015913
   43  C  5  X   -0.091309   2.167055  -0.060817   0.018156   0.024149
   44  C  5  Y    1.435549  -0.278344   2.759979  -0.374902  -0.129437
   45  C  5  Z   -0.015860   0.236514  -0.082805   0.058946  -0.253331
   46  C  6  S   -0.076414   0.100489   0.072834  -0.009525  -0.005488
   47  C  6  S    0.008427  -0.030783  -0.013863   0.096750   0.013945
   48  C  6  X    0.096515   0.145396  -0.242809   0.344150   0.013929
   49  C  6  Y    0.078306  -0.197018  -0.101958   0.212284   0.062722
   50  C  6  Z   -0.002088   0.026857  -0.038681  -0.035702   0.384021
   51  C  6  S    1.998095  -2.061310  -1.991650   0.139562   0.068358
   52  C  6  X    1.313153   1.329219  -2.393757  -0.355475  -0.031371
   53  C  6  Y    0.655191  -1.729831  -1.348785  -0.192569   0.009991
   54  C  6  Z    0.049554   0.262598  -0.149644   0.023673  -0.262709
   55  H  7  S   -0.025214  -0.116601   0.019676  -0.130277  -0.013114
   56  H  7  S   -0.388927   0.646197   0.359757  -0.012517  -0.041675
   57  H  8  S   -0.029184  -0.062158   0.000666  -0.017888  -0.259511
   58  H  8  S    0.053071  -0.130321  -0.085178  -0.021077   0.028735
   59  H  9  S   -0.052647  -0.033721   0.010175  -0.194273   0.208487
   60  H  9  S    0.181185  -0.166850  -0.103581   0.027959  -0.003139
   61  H 10  S   -0.049641   0.031874   0.003070  -0.086668  -0.256150
   62  H 10  S    0.178149   0.159904   0.089556   0.012316   0.011499
   63  H 11  S   -0.030083   0.063641  -0.015547  -0.133725   0.232062
   64  H 11  S    0.063981   0.138231   0.103870   0.002792  -0.034819
   65  H 12  S   -0.023506   0.115609  -0.019691  -0.130069  -0.016636
   66  H 12  S   -0.388830  -0.640689  -0.359149  -0.022977   0.016562
   67  H 13  S    0.090955  -0.054454  -0.077927  -0.181430  -0.012713
   68  H 13  S    0.161024   0.742892   0.544244   0.047695  -0.007604
   69  H 14  S    0.090162   0.053672   0.078503  -0.175762  -0.037875
   70  H 14  S    0.162584  -0.744382  -0.543479   0.037957   0.027796

                     41         42         43         44         45
                    0.7159     0.7419     0.7576     0.7936     0.8009
                     A          A          A          A          A   
    1  C  1  S    0.017388   0.000959   0.042920   0.002103  -0.009191
    2  C  1  S   -0.009068  -0.084988  -0.002273  -0.004353  -0.015535
    3  C  1  X   -0.006300   0.271463   0.144076  -0.032908  -0.061555
    4  C  1  Y   -0.334682   0.383324  -0.125463   0.049039  -0.011537
    5  C  1  Z    0.006151  -0.049116  -0.017607   0.674508   0.003633
    6  C  1  S   -0.062636  -0.518153   0.331603   0.037592  -0.218577
    7  C  1  X    0.174039  -0.062286  -0.145939  -0.033725   0.108484
    8  C  1  Y    0.475705  -0.476557   0.472009  -0.025922  -0.169954
    9  C  1  Z   -0.015533   0.072728  -0.019615  -0.650079  -0.037578
   10  C  2  S    0.008126   0.023351  -0.020326  -0.002650   0.002238
   11  C  2  S   -0.031954  -0.096760   0.082887   0.016722  -0.026158
   12  C  2  X    0.158882   0.204512   0.129676  -0.054299   0.099840
   13  C  2  Y    0.293795   0.013285  -0.637872  -0.029546   0.180994
   14  C  2  Z   -0.026916  -0.015449   0.087395  -0.054503  -0.293152
   15  C  2  S   -0.265047   0.430540  -0.400326  -0.039017   0.048188
   16  C  2  X   -0.208497  -0.403062  -0.100008   0.089115  -0.213693
   17  C  2  Y   -0.232923  -0.171460   0.813890   0.037597  -0.394345
   18  C  2  Z    0.009656   0.027568  -0.116475   0.118815   0.534244
   19  C  3  S    0.007810  -0.023060  -0.021012   0.001520  -0.002070
   20  C  3  S   -0.032384   0.095457   0.086856   0.000570   0.023957
   21  C  3  X    0.176441   0.102996  -0.614708  -0.043194  -0.133760
   22  C  3  Y    0.286199  -0.185554  -0.222105  -0.039881  -0.150210
   23  C  3  Z    0.000357  -0.012673  -0.045616   0.043619  -0.277502
   24  C  3  S   -0.257454  -0.423471  -0.417575   0.030312  -0.086322
   25  C  3  X   -0.098130  -0.068746   0.752137   0.069923   0.284956
   26  C  3  Y   -0.302285   0.437442   0.353107   0.026187   0.371982
   27  C  3  Z    0.016377   0.025324   0.064125  -0.097770   0.507135
   28  C  4  S    0.017633  -0.001433   0.042932   0.002056   0.007354
   29  C  4  S   -0.009945   0.084081  -0.002192   0.007547   0.014901
   30  C  4  X   -0.279275  -0.193593  -0.185021   0.048006  -0.025753
   31  C  4  Y   -0.172789  -0.428572   0.054889   0.023103   0.047505
   32  C  4  Z   -0.043004  -0.067358   0.017657  -0.668696   0.045262
   33  C  4  S   -0.075901   0.514703   0.348748   0.012303   0.223337
   34  C  4  X    0.313534   0.380036   0.496181  -0.019762   0.224749
   35  C  4  Y    0.394991   0.292230   0.112782  -0.031647   0.006927
   36  C  4  Z    0.026457   0.066888   0.006413   0.637950  -0.084301
   37  C  5  S    0.003348   0.057489  -0.019101  -0.003135  -0.003839
   38  C  5  S   -0.003620   0.009108   0.072755   0.003974   0.029359
   39  C  5  X   -0.322179  -0.336827  -0.033798   0.018922  -0.025819
   40  C  5  Y    0.188623   0.284366   0.252040   0.007682   0.067568
   41  C  5  Z   -0.043211  -0.098359   0.004141  -0.305455   0.541060
   42  C  5  S    0.036934   0.201374   0.017012  -0.013829  -0.082877
   43  C  5  X    0.367796   0.412045  -0.049431  -0.010209  -0.084599
   44  C  5  Y   -0.142611  -0.741170  -0.175657   0.002016  -0.036767
   45  C  5  Z    0.049483   0.103716  -0.005871   0.250931  -0.442122
   46  C  6  S    0.004052  -0.057345  -0.019936  -0.001220   0.007082
   47  C  6  S   -0.003416  -0.010382   0.072543  -0.001513  -0.023174
   48  C  6  X    0.329557  -0.417370   0.227278  -0.014483  -0.115186
   49  C  6  Y   -0.182832   0.145217   0.100821   0.026284   0.003371
   50  C  6  Z    0.036281  -0.088223   0.009352   0.339097   0.522307
   51  C  6  S    0.030613  -0.201603   0.022341  -0.053056   0.099080
   52  C  6  X   -0.321639   0.847160  -0.112451   0.003021   0.039489
   53  C  6  Y    0.237701   0.021548  -0.125495  -0.043122   0.068331
   54  C  6  Z   -0.040390   0.107385  -0.001967  -0.276867  -0.430750
   55  H  7  S    0.286681  -0.139236   0.299833   0.024055  -0.083302
   56  H  7  S   -0.128191  -0.007502  -0.003188   0.031382  -0.004719
   57  H  8  S    0.098113   0.038454  -0.024689  -0.109210   0.330921
   58  H  8  S    0.015821   0.115673  -0.074367   0.042273   0.041796
   59  H  9  S    0.133849   0.048682  -0.069019   0.104592  -0.273983
   60  H  9  S    0.008165   0.108733  -0.051280  -0.095948   0.119056
   61  H 10  S    0.143502  -0.038294  -0.072968   0.135589   0.272795
   62  H 10  S    0.006088  -0.106448  -0.058703  -0.081581  -0.111274
   63  H 11  S    0.087038  -0.049603  -0.025101  -0.110918  -0.322762
   64  H 11  S    0.018602  -0.117658  -0.077741   0.063812  -0.037382
   65  H 12  S    0.285405   0.134595   0.301831   0.029173   0.083517
   66  H 12  S   -0.129658   0.009410   0.001208   0.006191   0.013167
   67  H 13  S    0.256108   0.308833   0.033314   0.000903   0.008721
   68  H 13  S   -0.071398  -0.183549  -0.073448   0.001755  -0.035414
   69  H 14  S    0.258412  -0.309382   0.028977   0.003223   0.018106
   70  H 14  S   -0.074987   0.183528  -0.068978  -0.007304   0.013694

                     46         47         48         49         50
                    0.8157     0.8353     0.8511     0.8545     0.8679
                     A          A          A          A          A   
    1  C  1  S   -0.027024  -0.009540  -0.017650  -0.027027   0.000754
    2  C  1  S   -0.090579   0.002598   0.112862   0.061173   0.004184
    3  C  1  X    0.075787  -0.236912  -0.164211  -0.334486   0.033452
    4  C  1  Y   -0.186404   0.017530  -0.196958  -0.272171   0.035540
    5  C  1  Z    0.083589   0.404494   0.246366  -0.366939   0.315570
    6  C  1  S    0.582369  -0.743712   0.396283  -0.583384   0.008499
    7  C  1  X   -0.851019   0.613172  -0.107339   0.523388  -0.095040
    8  C  1  Y    0.023858  -0.544596   0.690947  -0.143903  -0.053391
    9  C  1  Z   -0.134621  -0.494276  -0.441895   0.630153  -0.585768
   10  C  2  S   -0.034135  -0.004427  -0.002764  -0.016937   0.001579
   11  C  2  S    0.137688  -0.029393   0.040351   0.010091  -0.010693
   12  C  2  X   -0.554419   0.173944  -0.144162   0.036126  -0.099199
   13  C  2  Y    0.150213   0.401419  -0.345038   0.265387  -0.017136
   14  C  2  Z   -0.030383  -0.151292  -0.109232   0.234201   0.033630
   15  C  2  S   -0.697928   0.290788  -0.303132   0.146597   0.095862
   16  C  2  X    1.624375  -0.660912   0.387861  -0.307396   0.136783
   17  C  2  Y   -0.238652  -1.060705   0.910160  -0.851093   0.027369
   18  C  2  Z    0.027582   0.347651   0.204424  -0.439968  -0.099678
   19  C  3  S    0.033836   0.004467  -0.016909   0.002964   0.000052
   20  C  3  S   -0.136987   0.036874   0.024973   0.027628  -0.006350
   21  C  3  X   -0.412202  -0.267921   0.121388  -0.250299   0.037140
   22  C  3  Y    0.402423  -0.370765   0.080491  -0.335008  -0.085095
   23  C  3  Z   -0.042870  -0.120784  -0.160873   0.225400  -0.053319
   24  C  3  S    0.692538  -0.320129   0.013007  -0.279347   0.059445
   25  C  3  X    1.030315   0.610798  -0.342421   0.683337  -0.072310
   26  C  3  Y   -1.282934   1.125458  -0.444941   0.961216   0.148824
   27  C  3  Z    0.061635   0.268116   0.306655  -0.437290   0.148803
   28  C  4  S    0.027708   0.007548  -0.031872  -0.008090  -0.001358
   29  C  4  S    0.090222   0.014507   0.097465   0.081969  -0.005496
   30  C  4  X    0.199031  -0.117560  -0.068307  -0.075262  -0.029102
   31  C  4  Y    0.023609   0.157376  -0.501244  -0.071745   0.010914
   32  C  4  Z    0.109643   0.419867   0.232371  -0.394801  -0.273587
   33  C  4  S   -0.584468   0.745374  -0.446770   0.542216   0.099292
   34  C  4  X   -0.452203   0.782800  -0.191015   0.731143   0.075977
   35  C  4  Y    0.735897  -0.219416   0.470028   0.090891  -0.139425
   36  C  4  Z   -0.143724  -0.545215  -0.382501   0.659155   0.519743
   37  C  5  S   -0.000265  -0.007879   0.040632   0.015185   0.002149
[...]
 TOTAL WALL CLOCK TIME=        476.9 SECONDS, CPU UTILIZATION IS    99.49%
 ..... END OF 1-ELECTRON GRADIENT ......
 STEP CPU TIME =     0.01 TOTAL CPU TIME =        474.5 (      7.9 MIN)
 TOTAL WALL CLOCK TIME=        477.0 SECONDS, CPU UTILIZATION IS    99.49%
 MEMORY FOR GRID POINT CONTRIBUTIONS TO THE DFT GRADIENT=    898589 WORDS.
 STEP CPU TIME =     4.32 TOTAL CPU TIME =        478.8 (      8.0 MIN)
 TOTAL WALL CLOCK TIME=        481.3 SECONDS, CPU UTILIZATION IS    99.49%
 ...... END OF 2-ELECTRON GRADIENT ......
 STEP CPU TIME =     0.12 TOTAL CPU TIME =        478.9 (      8.0 MIN)
 TOTAL WALL CLOCK TIME=        481.4 SECONDS, CPU UTILIZATION IS    99.49%

          NSERCH= 26     ENERGY=    -231.9843983

                                 -----------------------
                                 GRADIENT (HARTREE/BOHR)
                                 -----------------------
        ATOM     ZNUC       DE/DX         DE/DY         DE/DZ
 --------------------------------------------------------------
    1  C            6.0     0.0001521     0.0007580    -0.0011222
    2  C            6.0     0.0008880     0.0005477     0.0003005
    3  C            6.0     0.0002378     0.0014520    -0.0002797
    4  C            6.0    -0.0001223     0.0001341    -0.0003563
    5  C            6.0    -0.0001789     0.0001945    -0.0000788
    6  C            6.0    -0.0003815     0.0002779    -0.0004262
    7  H            1.0    -0.0002293     0.0001733    -0.0000217
    8  H            1.0    -0.0002788    -0.0003511     0.0015927
    9  H            1.0    -0.0014820    -0.0007059    -0.0007437
   10  H            1.0     0.0001477    -0.0012342     0.0003426
   11  H            1.0     0.0001645    -0.0003640    -0.0003055
   12  H            1.0     0.0005513    -0.0002723     0.0003878
   13  H            1.0     0.0006402    -0.0001235     0.0001415
   14  H            1.0    -0.0001088    -0.0004866     0.0005691

          MAXIMUM GRADIENT = 0.0015927    RMS GRADIENT = 0.0006065

 NSERCH:  26  E=     -231.9843983044  GRAD. MAX=  0.0015927  R.M.S.=  0.0006065

          HESSIAN UPDATED USING THE BFGS FORMULA
             ACTUAL ENERGY CHANGE WAS   0.0000025616
          PREDICTED ENERGY CHANGE WAS  -0.0000432086 RATIO= -0.059
          MIN SEARCH, CORRECT HESSIAN, TRYING PURE NR STEP
               NR STEP HAS LENGTH         =   0.030905
          RADIUS OF STEP TAKEN=   0.03090  CURRENT TRUST RADIUS=   0.05000

 BEGINNING GEOMETRY SEARCH POINT NSERCH=  27 ...

 COORDINATES OF ALL ATOMS ARE (ANGS)
   ATOM   CHARGE       X              Y              Z
 ------------------------------------------------------------
 C           6.0   1.1820473381  -0.7648752631   0.2583375409
 C           6.0   1.2718170315   0.6919890407  -0.1720080565
 C           6.0  -0.0437518033   1.4510270778   0.1371603013
 C           6.0  -1.2620309914   0.6270119129  -0.2536769270
 C           6.0  -1.2231486733  -0.7125161764  -0.1858282501
 C           6.0   0.0059179852  -1.4101553242   0.2273224074
 H           1.0   2.0984250873  -1.2800528493   0.5302819547
 H           1.0   1.4662817695   0.7260891274  -1.2564944748
 H           1.0   2.1127655673   1.1900393483   0.3238155561
 H           1.0  -0.0458378106   2.4167585218  -0.3828002067
 H           1.0  -0.0965056374   1.6648403737   1.2167203739
 H           1.0  -2.1730408740   1.1511123343  -0.5270176523
 H           1.0  -2.0997458153  -1.3092986914  -0.4167830949
 H           1.0  -0.0629531735  -2.4614594326   0.4863905279

          INTERNUCLEAR DISTANCES (ANGS.)
          ------------------------------

                1 C          2 C          3 C          4 C          5 C     

   1 C       0.0000000    1.5217456 *  2.5352496 *  2.8588507 *  2.4464244 *
   2 C       1.5217456 *  0.0000000    1.5499823 *  2.5359964 *  2.8631591 *
   3 C       2.5352496 *  1.5499823 *  0.0000000    1.5218275 *  2.4851998 *
   4 C       2.8588507 *  2.5359964 *  1.5218275 *  0.0000000    1.3418088 *
   5 C       2.4464244 *  2.8631591 *  2.4851998 *  1.3418088 *  0.0000000  
   6 C       1.3418750 *  2.4861569 *  2.8630335 *  2.4472649 *  1.4724125 *
   7 H       1.0858683 *  2.2506535 *  3.4931739    3.9426073    3.4449621  
   8 H       2.1444067 *  1.1023113 *  2.1789929 *  2.9084618 *  3.2324832  
   9 H       2.1661521 *  1.0959423 *  2.1802573 *  3.4698342    3.8739874  
  10 H       3.4700941    2.1807057 *  1.0968138 *  2.1677158 *  3.3492117  
  11 H       2.9080429 *  2.1788330 *  1.1017936 *  2.1442028 *  2.9813238 *
  12 H       3.9426397    3.4934041    2.2505451 *  1.0859721 *  2.1193906 *
  13 H       3.3944589    3.9284225    3.4861674    2.1160502 *  1.0853166 *
  14 H       2.1167032 *  3.4870242    3.9280887    3.3947228    2.2037999 *

                6 C          7 H          8 H          9 H         10 H     

   1 C       1.3418750 *  1.0858683 *  2.1444067 *  2.1661521 *  3.4700941  
   2 C       2.4861569 *  2.2506535 *  1.1023113 *  1.0959423 *  2.1807057 *
   3 C       2.8630335 *  3.4931739    2.1789929 *  2.1802573 *  1.0968138 *
   4 C       2.4472649 *  3.9426073    2.9084618 *  3.4698342    2.1677158 *
   5 C       1.4724125 *  3.4449621    3.2324832    3.8739874    3.3492117  
   6 C       0.0000000    2.1183241 *  2.9829374 *  3.3480039    3.8755900  
   7 H       2.1183241 *  0.0000000    2.7598516 *  2.4787476 *  4.3701255  
   8 H       2.9829374 *  2.7598516 *  0.0000000    1.7693419 *  2.4306810 *
   9 H       3.3480039    2.4787476 *  1.7693419 *  0.0000000    2.5814171 *
  10 H       3.8755900    4.3701255    2.4306810 *  2.5814171 *  0.0000000  
  11 H       3.2318721    3.7364843    3.0725153    2.4297313 *  1.7681669 *
  12 H       3.4462998    5.0273122    3.7359671    4.3696189    2.4794459 *
  13 H       2.2042831 *  4.3037689    4.1909989    4.9538297    4.2547850  
  14 H       1.0849423 *  2.4635754 *  3.9416587    4.2536603    4.9550778  

               11 H         12 H         13 H         14 H     

   1 C       2.9080429 *  3.9426397    3.3944589    2.1167032 *
   2 C       2.1788330 *  3.4934041    3.9284225    3.4870242  
   3 C       1.1017936 *  2.2505451 *  3.4861674    3.9280887  
   4 C       2.1442028 *  1.0859721 *  2.1160502 *  3.3947228  
   5 C       2.9813238 *  2.1193906 *  1.0853166 *  2.2037999 *
   6 C       3.2318721    3.4462998    2.2042831 *  1.0849423 *
   7 H       3.7364843    5.0273122    4.3037689    2.4635754 *
   8 H       3.0725153    3.7359671    4.1909989    3.9416587  
   9 H       2.4297313 *  4.3696189    4.9538297    4.2536603  
  10 H       1.7681669 *  2.4794459 *  4.2547850    4.9550778  
  11 H       0.0000000    2.7598075 *  3.9404071    4.1905677  
  12 H       2.7598075 *  0.0000000    2.4639696 *  4.3046650  
  13 H       3.9404071    2.4639696 *  0.0000000    2.5083304 *
  14 H       4.1905677    4.3046650    2.5083304 *  0.0000000  

  * ... LESS THAN  3.000

 ...... END OF ONE-ELECTRON INTEGRALS ......
 STEP CPU TIME =     0.01 TOTAL CPU TIME =        479.0 (      8.0 MIN)
 TOTAL WALL CLOCK TIME=        481.4 SECONDS, CPU UTILIZATION IS    99.49%
  ...... END OF TWO-ELECTRON INTEGRALS .....
 STEP CPU TIME =     0.00 TOTAL CPU TIME =        479.0 (      8.0 MIN)
 TOTAL WALL CLOCK TIME=        481.4 SECONDS, CPU UTILIZATION IS    99.48%

          --------------------------
             R-B3LYP SCF CALCULATION
          --------------------------
         DENSITY MATRIX CONVERGENCE THRESHOLD=  2.00E-05
     COARSE -> FINE DFT GRID SWITCH THRESHOLD=  3.00E-04 (SWITCH IN $DFT)
                   HF -> DFT SWITCH THRESHOLD=  5.00E-03 (SWOFF IN $DFT)

 DIRECT SCF CALCULATION, SCHWRZ=T   FDIFF=T,  DIRTHR=  0.00E+00 NITDIR=10

 DFT CODE IS SWITCHING FROM THE FINE GRID NRAD= 96,  NLEB=  590
                      TO THE COARSE GRID NRAD0= 24, NLEB0=  110

                                                                                   NONZERO     BLOCKS
 ITER EX DEM     TOTAL ENERGY        E CHANGE  DENSITY CHANGE    DIIS ERROR      INTEGRALS    SKIPPED
          * * *   INITIATING DIIS PROCEDURE   * * *
   1  0  0     -231.9823567099  -231.9823567099   0.004288895   0.001780422        2793330      38186
   2  1  0     -231.9823858268    -0.0000291169   0.002062579   0.000617348        2677199      55781
   3  2  0     -231.9823856693     0.0000001575   0.001003106   0.000602688        2616395      61489
   4  3  0     -231.9823878858    -0.0000022164   0.000161102   0.000206071        2583191      64943
 DFT CODE IS SWITCHING BACK TO THE FINE GRID
          * * *   INITIATING DIIS PROCEDURE   * * *
   5  4  0     -231.9844156064    -0.0020277206   0.002600946   0.001688073        2793327      38191
   6  5  0     -231.9844220537    -0.0000064474   0.000230839   0.000119982        2658538      57841
   7  6  0     -231.9844220816    -0.0000000279   0.000221223   0.000160258        2542766      68717
   8  7  0     -231.9844221970    -0.0000001154   0.000052226   0.000082093        2495355      73048
   9  8  0     -231.9844222113    -0.0000000143   0.000021192   0.000019451        2427879      79536
  10  9  0     -231.9844222129    -0.0000000016   0.000002656   0.000001455        2350323      85178
  11 10  0     -231.9844222131    -0.0000000002   0.000001392   0.000000775        2160260     100136

          -----------------
          DENSITY CONVERGED
          -----------------
     TIME TO FORM FOCK OPERATORS=      14.3 SECONDS (       1.3 SEC/ITER)
     FOCK TIME ON FIRST ITERATION=       0.2, LAST ITERATION=       1.9
     TIME TO SOLVE SCF EQUATIONS=       0.1 SECONDS (       0.0 SEC/ITER)

 FINAL R-B3LYP ENERGY IS     -231.9844222131 AFTER  11 ITERATIONS
 DFT EXCHANGE + CORRELATION ENERGY =       -28.4917074825
 TOTAL ELECTRON NUMBER             =        43.9999742334
 ...... END OF RHF CALCULATION ......
 STEP CPU TIME =    14.96 TOTAL CPU TIME =        493.9 (      8.2 MIN)
 TOTAL WALL CLOCK TIME=        496.5 SECONDS, CPU UTILIZATION IS    99.49%
 ..... END OF 1-ELECTRON GRADIENT ......
 STEP CPU TIME =     0.01 TOTAL CPU TIME =        493.9 (      8.2 MIN)
 TOTAL WALL CLOCK TIME=        496.5 SECONDS, CPU UTILIZATION IS    99.49%
 MEMORY FOR GRID POINT CONTRIBUTIONS TO THE DFT GRADIENT=    898589 WORDS.
 STEP CPU TIME =     4.33 TOTAL CPU TIME =        498.3 (      8.3 MIN)
 TOTAL WALL CLOCK TIME=        500.8 SECONDS, CPU UTILIZATION IS    99.49%
 ...... END OF 2-ELECTRON GRADIENT ......
 STEP CPU TIME =     0.13 TOTAL CPU TIME =        498.4 (      8.3 MIN)
 TOTAL WALL CLOCK TIME=        500.9 SECONDS, CPU UTILIZATION IS    99.49%

          NSERCH= 27     ENERGY=    -231.9844222

                                 -----------------------
                                 GRADIENT (HARTREE/BOHR)
                                 -----------------------
        ATOM     ZNUC       DE/DX         DE/DY         DE/DZ
 --------------------------------------------------------------
    1  C            6.0    -0.0001556     0.0004081    -0.0001427
    2  C            6.0    -0.0002302    -0.0000616    -0.0001453
    3  C            6.0     0.0000232    -0.0009948     0.0005492
    4  C            6.0     0.0000106    -0.0001512     0.0000118
    5  C            6.0    -0.0000864     0.0000178    -0.0000356
    6  C            6.0     0.0001913    -0.0007253     0.0003243
    7  H            1.0    -0.0000856    -0.0000941     0.0000286
    8  H            1.0     0.0001135     0.0000518     0.0001180
    9  H            1.0     0.0002284     0.0001267    -0.0000310
   10  H            1.0     0.0000737     0.0007991    -0.0000384
   11  H            1.0    -0.0000160     0.0002102    -0.0004760
   12  H            1.0    -0.0000669     0.0000607    -0.0000452
   13  H            1.0     0.0000819     0.0000603     0.0000565
   14  H            1.0    -0.0000820     0.0002922    -0.0001742

          MAXIMUM GRADIENT = 0.0009948    RMS GRADIENT = 0.0002870

 NSERCH:  27  E=     -231.9844222131  GRAD. MAX=  0.0009948  R.M.S.=  0.0002870

          HESSIAN UPDATED USING THE BFGS FORMULA
             ACTUAL ENERGY CHANGE WAS  -0.0000239087
          PREDICTED ENERGY CHANGE WAS  -0.0000311784 RATIO=  0.767
          MIN SEARCH, CORRECT HESSIAN, TRYING PURE NR STEP
               NR STEP HAS LENGTH         =   0.015636
          RADIUS OF STEP TAKEN=   0.01564  CURRENT TRUST RADIUS=   0.05000

 BEGINNING GEOMETRY SEARCH POINT NSERCH=  28 ...

 COORDINATES OF ALL ATOMS ARE (ANGS)
   ATOM   CHARGE       X              Y              Z
 ------------------------------------------------------------
 C           6.0   1.1826982695  -0.7653901595   0.2597534453
 C           6.0   1.2714213309   0.6915043369  -0.1725970235
 C           6.0  -0.0436195156   1.4519121702   0.1377551200
 C           6.0  -1.2621233445   0.6277488689  -0.2525034306
 C           6.0  -1.2232515931  -0.7119392562  -0.1866118331
 C           6.0   0.0057548007  -1.4088856738   0.2268605009
 H           1.0   2.0995880376  -1.2788941846   0.5323068780
 H           1.0   1.4648036450   0.7255705695  -1.2574903880
 H           1.0   2.1129114229   1.1899085459   0.3227441576
 H           1.0  -0.0470190854   2.4133296432  -0.3853020263
 H           1.0  -0.0952566292   1.6624594152   1.2198171146
 H           1.0  -2.1733424886   1.1519846178  -0.5264542319
 H           1.0  -2.1000125987  -1.3083441405  -0.4195764642
 H           1.0  -0.0623122516  -2.4604547531   0.4867181811

          INTERNUCLEAR DISTANCES (ANGS.)
          ------------------------------

                1 C          2 C          3 C          4 C          5 C     

   1 C       0.0000000    1.5222813 *  2.5367634 *  2.8601392 *  2.4475894 *
   2 C       1.5222813 *  0.0000000    1.5504422 *  2.5356061 *  2.8623842 *
   3 C       2.5367634 *  1.5504422 *  0.0000000    1.5219390 *  2.4857592 *
   4 C       2.8601392 *  2.5356061 *  1.5219390 *  0.0000000    1.3418707 *
   5 C       2.4475894 *  2.8623842 *  2.4857592 *  1.3418707 *  0.0000000  
   6 C       1.3417766 *  2.4845757 *  2.8626110 *  2.4464638 *  1.4721244 *
   7 H       1.0856604 *  2.2506043 *  3.4937534    3.9436428    3.4466716  
   8 H       2.1458276 *  1.1025202 *  2.1793629 *  2.9078684 *  3.2309219  
   9 H       2.1662081 *  1.0963007 *  2.1802506 *  3.4695523    3.8738162  
  10 H       3.4687982    2.1790390 *  1.0944971 *  2.1638883 *  3.3451915  
  11 H       2.9067756 *  2.1793071 *  1.1035645 *  2.1447451 *  2.9813058 *
  12 H       3.9442944    3.4933730    2.2509666 *  1.0863666 *  2.1195230 *
  13 H       3.3959504    3.9277168    3.4868877    2.1162297 *  1.0856708 *
  14 H       2.1153742 *  3.4854538    3.9279434    3.3945540    2.2041914 *

                6 C          7 H          8 H          9 H         10 H     

   1 C       1.3417766 *  1.0856604 *  2.1458276 *  2.1662081 *  3.4687982  
   2 C       2.4845757 *  2.2506043 *  1.1025202 *  1.0963007 *  2.1790390 *
   3 C       2.8626110 *  3.4937534    2.1793629 *  2.1802506 *  1.0944971 *
   4 C       2.4464638 *  3.9436428    2.9078684 *  3.4695523    2.1638883 *
   5 C       1.4721244 *  3.4466716    3.2309219    3.8738162    3.3451915  
   6 C       0.0000000    2.1199842 *  2.9812790 *  3.3470934    3.8712863  
   7 H       2.1199842 *  0.0000000    2.7611962 *  2.4777169 *  4.3683458  
   8 H       2.9812790 *  2.7611962 *  0.0000000    1.7699702 *  2.4279315 *
   9 H       3.3470934    2.4777169 *  1.7699702 *  0.0000000    2.5813540 *
  10 H       3.8712863    4.3683458    2.4279315 *  2.5813540 *  0.0000000  
  11 H       3.2294468    3.7338418    3.0738577    2.4298252 *  1.7727212 *
  12 H       3.4458678    5.0287257    3.7352845    4.3697310    2.4763211 *
  13 H       2.2050500 *  4.3062274    4.1888929    4.9538909    4.2505074  
  14 H       1.0853371 *  2.4641381 *  3.9401908    4.2524861    4.9512046  

               11 H         12 H         13 H         14 H     

   1 C       2.9067756 *  3.9442944    3.3959504    2.1153742 *
   2 C       2.1793071 *  3.4933730    3.9277168    3.4854538  
   3 C       1.1035645 *  2.2509666 *  3.4868877    3.9279434  
   4 C       2.1447451 *  1.0863666 *  2.1162297 *  3.3945540  
   5 C       2.9813058 *  2.1195230 *  1.0856708 *  2.2041914 *
   6 C       3.2294468    3.4458678    2.2050500 *  1.0853371 *
   7 H       3.7338418    5.0287257    4.3062274    2.4641381 *
   8 H       3.0738577    3.7352845    4.1888929    3.9401908  
   9 H       2.4298252 *  4.3697310    4.9538909    4.2524861  
  10 H       1.7727212 *  2.4763211 *  4.2505074    4.9512046  
  11 H       0.0000000    2.7619719 *  3.9411079    4.1877131  
  12 H       2.7619719 *  0.0000000    2.4637406 *  4.3049605  
  13 H       3.9411079    2.4637406 *  0.0000000    2.5101696 *
  14 H       4.1877131    4.3049605    2.5101696 *  0.0000000  

  * ... LESS THAN  3.000

 ...... END OF ONE-ELECTRON INTEGRALS ......
 STEP CPU TIME =     0.00 TOTAL CPU TIME =        498.4 (      8.3 MIN)
 TOTAL WALL CLOCK TIME=        500.9 SECONDS, CPU UTILIZATION IS    99.49%
  ...... END OF TWO-ELECTRON INTEGRALS .....
 STEP CPU TIME =     0.00 TOTAL CPU TIME =        498.4 (      8.3 MIN)
 TOTAL WALL CLOCK TIME=        501.0 SECONDS, CPU UTILIZATION IS    99.49%

          --------------------------
             R-B3LYP SCF CALCULATION
          --------------------------
         DENSITY MATRIX CONVERGENCE THRESHOLD=  2.00E-05
     COARSE -> FINE DFT GRID SWITCH THRESHOLD=  3.00E-04 (SWITCH IN $DFT)
                   HF -> DFT SWITCH THRESHOLD=  5.00E-03 (SWOFF IN $DFT)

 DIRECT SCF CALCULATION, SCHWRZ=T   FDIFF=T,  DIRTHR=  0.00E+00 NITDIR=10

 DFT CODE IS SWITCHING FROM THE FINE GRID NRAD= 96,  NLEB=  590
                      TO THE COARSE GRID NRAD0= 24, NLEB0=  110

                                                                                   NONZERO     BLOCKS
 ITER EX DEM     TOTAL ENERGY        E CHANGE  DENSITY CHANGE    DIIS ERROR      INTEGRALS    SKIPPED
          * * *   INITIATING DIIS PROCEDURE   * * *
   1  0  0     -231.9823728184  -231.9823728184   0.002958056   0.001559894        2793425      38180
   2  1  0     -231.9823863449    -0.0000135264   0.000505136   0.000265175        2667622      56695
   3  2  0     -231.9823863766    -0.0000000317   0.000302375   0.000296602        2566061      66339
   4  3  0     -231.9823867401    -0.0000003635   0.000067936   0.000092556        2519678      71011
 DFT CODE IS SWITCHING BACK TO THE FINE GRID
          * * *   INITIATING DIIS PROCEDURE   * * *
   5  4  0     -231.9844145640    -0.0020278239   0.002663217   0.001698841        2793416      38182
   6  5  0     -231.9844210724    -0.0000065084   0.000202603   0.000117150        2658813      57825
   7  6  0     -231.9844211121    -0.0000000398   0.000186240   0.000124413        2546697      68358
   8  7  0     -231.9844212235    -0.0000001114   0.000062984   0.000058961        2496049      72656
   9  8  0     -231.9844212348    -0.0000000113   0.000019431   0.000018139        2418807      80280
  10  9  0     -231.9844212366    -0.0000000019   0.000002553   0.000001459        2356234      85220

          -----------------
          DENSITY CONVERGED
          -----------------
     TIME TO FORM FOCK OPERATORS=      12.4 SECONDS (       1.2 SEC/ITER)
     FOCK TIME ON FIRST ITERATION=       0.2, LAST ITERATION=       1.9
     TIME TO SOLVE SCF EQUATIONS=       0.1 SECONDS (       0.0 SEC/ITER)

 FINAL R-B3LYP ENERGY IS     -231.9844212366 AFTER  10 ITERATIONS
 DFT EXCHANGE + CORRELATION ENERGY =       -28.4912698840
 TOTAL ELECTRON NUMBER             =        43.9999738228
 ...... END OF RHF CALCULATION ......
 STEP CPU TIME =    13.02 TOTAL CPU TIME =        511.4 (      8.5 MIN)
 TOTAL WALL CLOCK TIME=        514.0 SECONDS, CPU UTILIZATION IS    99.49%
 ..... END OF 1-ELECTRON GRADIENT ......
 STEP CPU TIME =     0.01 TOTAL CPU TIME =        511.4 (      8.5 MIN)
 TOTAL WALL CLOCK TIME=        514.0 SECONDS, CPU UTILIZATION IS    99.49%
