chemcompute.org
{'UTCtimestamp': '2022-10-31T04:12:00.710085', 'cluster': 'jetstream2', 'clusterJobNumber': '141859', 'status': 'RUNNING', 'nodeList': 'chemcompute-node-0'}
----- GAMESS execution script 'rungms' -----
This job is running on host chemcompute-node-0.novalocal
under operating system Linux at Mon Oct 31 04:12:04 UTC 2022
SLURM has assigned the following compute nodes to this run:
Available scratch disk space (Kbyte units) at beginning of the job is
Filesystem     1K-blocks     Used Available Use% Mounted on
/dev/sda1       62903276 11544384  51358892  19% /
GAMESS temporary binary files will be written to /scratch/141859
GAMESS supplementary output files will be written to /data/slurm/48/483925
Copying input file 483925.inp to your run's scratch directory...
The generated host list is
chemcompute-node-0.novalocal

 Distributed Data Interface kickoff program.
 Initiating 1 compute processes on 1 nodes to run the following command:
 /data/gamess-2019R1-avx2-ddi/gamess.00.x 483925 

          ******************************************************
          *         GAMESS VERSION = 30 JUN 2019 (R1)          *
          *             FROM IOWA STATE UNIVERSITY             *
          * M.W.SCHMIDT, K.K.BALDRIDGE, J.A.BOATZ, S.T.ELBERT, *
          *   M.S.GORDON, J.H.JENSEN, S.KOSEKI, N.MATSUNAGA,   *
          *          K.A.NGUYEN, S.J.SU, T.L.WINDUS,           *
          *       TOGETHER WITH M.DUPUIS, J.A.MONTGOMERY       *
          *         J.COMPUT.CHEM.  14, 1347-1363(1993)        *
          **************** 64 BIT INTEL VERSION ****************

  SINCE 1993, STUDENTS AND POSTDOCS WORKING AT IOWA STATE UNIVERSITY
  AND ALSO IN THEIR VARIOUS JOBS AFTER LEAVING ISU HAVE MADE IMPORTANT
  CONTRIBUTIONS TO THE CODE:
     IVANA ADAMOVIC, CHRISTINE AIKENS, YURI ALEXEEV, POOJA ARORA,
     ANDREY ASADCHEV, ROB BELL, PRADIPTA BANDYOPADHYAY, JONATHAN BENTZ,
     COLLEEN BERTONI, BRETT BODE, KURT BRORSEN, CALEB CARLIN, GALINA CHABAN,
     WEI CHEN, CHEOL HO CHOI, PAUL DAY, ALBERT DEFUSCO, NUWAN DESILVA,
     TIM DUDLEY, DMITRI FEDOROV, ALEX FINDLATER, GRAHAM FLETCHER, 
     MARK FREITAG, KURT GLAESEMANN, ANASTASIA GUNINA,
     DAN KEMP, GRANT MERRILL, NORIYUKI MINEZAWA, JONATHAN MULLIN,
     TAKESHI NAGATA, SEAN NEDD, HEATHER NETZLOFF, BOSILJKA NJEGIC, RYAN OLSON,
     MIKE PAK, BUU PHAM,
     SPENCER PRUITT, LUKE ROSKOP, JIM SHOEMAKER, LYUDMILA SLIPCHENKO,
     TONY SMITH, SAROM SOK LEANG, JIE SONG, TETSUYA TAKETSUGU, SIMON WEBB,
     PENG XU, SOOHAENG YOO, FEDERICO ZAHARIEV

  ADDITIONAL CODE HAS BEEN PROVIDED BY COLLABORATORS IN OTHER GROUPS:
     IOWA STATE UNIVERSITY:
          JOE IVANIC, AARON WEST, LAIMUTIS BYTAUTAS, KLAUS RUEDENBERG
     UNIVERSITY OF TOKYO: KIMIHIKO HIRAO, TAKAHITO NAKAJIMA,
          TAKAO TSUNEDA, MUNEAKI KAMIYA, SUSUMU YANAGISAWA,
          KIYOSHI YAGI, MAHITO CHIBA, SEIKEN TOKURA, NAOAKI KAWAKAMI
     UNIVERSITY OF AARHUS: FRANK JENSEN
     UNIVERSITY OF IOWA: VISVALDAS KAIRYS, HUI LI
     NATIONAL INST. OF STANDARDS AND TECHNOLOGY: WALT STEVENS, DAVID GARMER
     UNIVERSITY OF PISA: BENEDETTA MENNUCCI, JACOPO TOMASI
     UNIVERSITY OF MEMPHIS: HENRY KURTZ, PRAKASHAN KORAMBATH
     UNIVERSITY OF ALBERTA: TOBY ZENG, MARIUSZ KLOBUKOWSKI
     UNIVERSITY OF NEW ENGLAND: MARK SPACKMAN
     MIE UNIVERSITY: HIROAKI UMEDA
     NAT. INST. OF ADVANCED INDUSTRIAL SCIENCE AND TECHNOLOGY: KAZUO KITAURA
     MICHIGAN STATE UNIVERSITY:
          KAROL KOWALSKI, MARTA WLOCH, JEFFREY GOUR, JESSE LUTZ,
          WEI LI, JUN SHEN, J. EMILIANO DEUSTUA, PIOTR PIECUCH
     UNIVERSITY OF MINNESOTA:
          YINAN SHU
     UNIVERSITY OF SILESIA: MONIKA MUSIAL, STANISLAW KUCHARSKI
     FACULTES UNIVERSITAIRES NOTRE-DAME DE LA PAIX:
          OLIVIER QUINET, BENOIT CHAMPAGNE
     UNIVERSITY OF CALIFORNIA - SANTA BARBARA: BERNARD KIRTMAN
     INSTITUTE FOR MOLECULAR SCIENCE:
          KAZUYA ISHIMURA, MICHIO KATOUDA, AND SHIGERU NAGASE
     UNIVERSITY OF NOTRE DAME: ANNA POMOGAEVA, DAN CHIPMAN
     KYUSHU UNIVERSITY:
          HARUYUKI NAKANO,
          FENG LONG GU, JACEK KORCHOWIEC, MARCIN MAKOWSKI, AND YURIKO AOKI,
          HIROTOSHI MORI AND EISAKU MIYOSHI
     PENNSYLVANIA STATE UNIVERSITY:
          TZVETELIN IORDANOV, CHET SWALINA, JONATHAN SKONE,
          SHARON HAMMES-SCHIFFER
     WASEDA UNIVERSITY:
          MASATO KOBAYASHI, TOMOKO AKAMA, TSUGUKI TOUMA,
          TAKESHI YOSHIKAWA, YASUHIRO IKABATA, JUNJI SEINO,
          YUYA NAKAJIMA, HIROMI NAKAI
     NANJING UNIVERSITY: SHUHUA LI
     UNIVERSITY OF NEBRASKA:
          PEIFENG SU, DEJUN SI, NANDUN THELLAMUREGE, YALI WANG, HUI LI
     UNIVERSITY OF ZURICH: ROBERTO PEVERATI, KIM BALDRIDGE
     N. COPERNICUS UNIVERSITY AND JACKSON STATE UNIVERSITY:
          MARIA BARYSZ
     UNIVERSITY OF COPENHAGEN: Jimmy Kromann, CASPER STEINMANN
     TOKYO INSTITUTE OF TECHNOLOGY: HIROYA NAKATA
     NAGOYA UNIVERSITY: YOSHIO NISHIMOTO, STEPHAN IRLE
     MOSCOW STATE UNIVERSITY: VLADIMIR MIRONOV
     A.N.NESMEYANOV INSTITUTE OF ORGANOELEMENT COMPOUNDS OF RUSSIAN ACADEMY OF SCIENCES:
          IGOR S. GERASIMOV

 EXECUTION OF GAMESS BEGUN Mon Oct 31 04:12:04 2022

            ECHO OF THE FIRST FEW INPUT CARDS -
 INPUT CARD>!                                                                               
 INPUT CARD>!   GAMESS Calculation input file                                               
 INPUT CARD>!                                                                               
 INPUT CARD>!                                                                               
 INPUT CARD> $CONTRL SCFTYP=RHF MAXIT=200 RUNTYP=OPTIMIZE                                   
 INPUT CARD>         COORD=UNIQUE MULT=1                                                    
 INPUT CARD>         ICHARG=0                                                               
 INPUT CARD>         DFTTYP=B3LYP                                                           
 INPUT CARD>         MOLPLT=.FALSE. PLTORB=.FALSE.  $END                                    
 INPUT CARD> $SYSTEM TIMLIM=2879 MWORDS=250  $END                                           
 INPUT CARD>                                                                                
 INPUT CARD> $STATPT OPTTOL=0.0005 NSTEP=999 $END                                           
 INPUT CARD> $STATPT IHREP=0  $END                                                          
 INPUT CARD>                                                                                
 INPUT CARD> $DFT    METHOD=GRID  NLEB=590  $END                                            
 INPUT CARD>                                                                                
 INPUT CARD> $BASIS  GBASIS=N21 NGAUSS=3 $END                                               
 INPUT CARD>                                                                                
 INPUT CARD> $SCF    DIRSCF=.T. $END                                                        
 INPUT CARD> $GUESS  GUESS=HUCKEL  $END                                                     
 INPUT CARD>                                                                                
 INPUT CARD> $DATA                                                                          
 INPUT CARD>                                                                                
 INPUT CARD>  Cs                                                                            
 INPUT CARD>                                                                                
 INPUT CARD>C     6.0    -0.73     0.75    -0.77                                            
 INPUT CARD>C     6.0    -0.07     2.06    -1.19                                            
 INPUT CARD>C     6.0    -0.24     2.98    -0.00                                            
 INPUT CARD>Br   35.0     0.16    -0.76     1.71                                            
 INPUT CARD>H     1.0    -1.76     0.72    -1.13                                            
 INPUT CARD>H     1.0    -0.54     2.48    -2.09                                            
 INPUT CARD>H     1.0     0.99     1.94    -1.41                                            
 INPUT CARD>H     1.0    -1.23     3.44    -0.00                                            
 INPUT CARD>H     1.0     0.50     3.79    -0.00                                            
 INPUT CARD> $END                                                                           
 INPUT CARD>                                                                                
 INPUT CARD>                                                                                
 INPUT CARD>! Customizations after this line are persisted when using Do More Calculations  
  250000000 WORDS OF MEMORY AVAILABLE

     BASIS OPTIONS
     -------------
     GBASIS=N21          IGAUSS=       3      POLAR=NONE    
     NDFUNC=       0     NFFUNC=       0     DIFFSP=       F
     NPFUNC=       0      DIFFS=       F     BASNAM=        


     RUN TITLE
     ---------
                                                                                 

 THE POINT GROUP OF THE MOLECULE IS CS      
 THE ORDER OF THE PRINCIPAL AXIS IS     0

 ATOM      ATOMIC                      COORDINATES (BOHR)
           CHARGE         X                   Y                   Z
 C           6.0    -1.3794999710        1.4172944908        1.4550890105
 C           6.0    -1.3794999710        1.4172944908       -1.4550890105
 C           6.0    -0.1322808191        3.8928355347        2.2487739254
 C           6.0    -0.1322808191        3.8928355347       -2.2487739254
 C           6.0    -0.4535342371        5.6313834434        0.0000000000
 BR         35.0     0.3023561580       -1.4361917507       -3.2314314390
 BR         35.0     0.3023561580       -1.4361917507        3.2314314390
 H           1.0    -3.3259177384        1.3606027112        2.1353903661
 H           1.0    -3.3259177384        1.3606027112       -2.1353903661
 H           1.0    -1.0204520334        4.6865204496        3.9495273143
 H           1.0    -1.0204520334        4.6865204496       -3.9495273143
 H           1.0     1.8708287278        3.6660684162        2.6645136427
 H           1.0     1.8708287278        3.6660684162       -2.6645136427
 H           1.0    -2.3243629649        6.5006573978        0.0000000000
 H           1.0     0.9448629939        7.1620614935        0.0000000000

          INTERNUCLEAR DISTANCES (ANGS.)
          ------------------------------

                1 C          2 C          3 C          4 C          5 C     

   1 C       0.0000000    1.5400000 *  1.5258113 *  2.4481217 *  2.4095435 *
   2 C       1.5400000 *  0.0000000    2.4481217 *  1.5258113 *  2.4095435 *
   3 C       1.5258113 *  2.4481217 *  0.0000000    2.3800000 *  1.5137371 *
   4 C       2.4481217 *  1.5258113 *  2.3800000 *  0.0000000    1.5137371 *
   5 C       2.4095435 *  2.4095435 *  1.5137371 *  1.5137371 *  0.0000000  
   6 BR      3.0368734    1.9889193 *  4.0515799    2.8767516 *  4.1317914  
   7 BR      1.9889193 *  3.0368734    2.8767516 *  4.0515799    4.1317914  
   8 H       1.0915127 *  2.1614347 *  2.1576144 *  3.1676648    2.9487116 *
   9 H       2.1614347 *  1.0915127 *  3.1676648    2.1576144 *  2.9487116 *
  10 H       2.1843535 *  3.3479247    1.0987720 *  3.3400150    2.1698157 *
  11 H       3.3479247    2.1843535 *  3.3400150    1.0987720 *  2.1698157 *
  12 H       2.1872586 *  3.0210760    1.0892199 *  2.8103381 *  2.1407008 *
  13 H       3.0210760    2.1872586 *  2.8103381 *  1.0892199 *  2.1407008 *
  14 H       2.8423582 *  2.8423582 *  2.1601157 *  2.1601157 *  1.0916501 *
  15 H       3.3685902    3.3685902    2.1757527 *  2.1757527 *  1.0971326 *

                6 BR         7 BR         8 H          9 H         10 H     

   1 C       3.0368734    1.9889193 *  1.0915127 *  2.1614347 *  2.1843535 *
   2 C       1.9889193 *  3.0368734    2.1614347 *  1.0915127 *  3.3479247  
   3 C       4.0515799    2.8767516 *  2.1576144 *  3.1676648    1.0987720 *
   4 C       2.8767516 *  4.0515799    3.1676648    2.1576144 *  3.3400150  
   5 C       4.1317914    4.1317914    2.9487116 *  2.9487116 *  2.1698157 *
   6 BR      0.0000000    3.4200000    3.7339523    2.4926291 *  5.0425787  
   7 BR      3.4200000    0.0000000    2.4926291 *  3.7339523    3.3364652  
   8 H       3.7339523    2.4926291 *  0.0000000    2.2600000 *  2.3468276 *
   9 H       2.4926291 *  3.7339523    2.2600000 *  0.0000000    3.8670919  
  10 H       5.0425787    3.3364652    2.3468276 *  3.8670919    0.0000000  
  11 H       3.3364652    5.0425787    3.8670919    2.3468276 *  4.1800000  
  12 H       4.2087171    2.8405809 *  3.0214732    3.9373214    1.7592328 *
  13 H       2.8405809 *  4.2087171    3.9373214    3.0214732    3.8577843  
  14 H       4.7430159    4.7430159    2.9926911 *  2.9926911 *  2.4012080 *
  15 H       4.8725968    4.8725968    3.9761036    3.9761036    2.6769012 *

               11 H         12 H         13 H         14 H         15 H     

   1 C       3.3479247    2.1872586 *  3.0210760    2.8423582 *  3.3685902  
   2 C       2.1843535 *  3.0210760    2.1872586 *  2.8423582 *  3.3685902  
   3 C       3.3400150    1.0892199 *  2.8103381 *  2.1601157 *  2.1757527 *
   4 C       1.0987720 *  2.8103381 *  1.0892199 *  2.1601157 *  2.1757527 *
   5 C       2.1698157 *  2.1407008 *  2.1407008 *  1.0916501 *  1.0971326 *
   6 BR      3.3364652    4.2087171    2.8405809 *  4.7430159    4.8725968  
   7 BR      5.0425787    2.8405809 *  4.2087171    4.7430159    4.8725968  
   8 H       3.8670919    3.0214732    3.9373214    2.9926911 *  3.9761036  
   9 H       2.3468276 *  3.9373214    3.0214732    2.9926911 *  3.9761036  
  10 H       4.1800000    1.7592328 *  3.8577843    2.4012080 *  2.6769012 *
  11 H       0.0000000    3.8577843    1.7592328 *  2.4012080 *  2.6769012 *
  12 H       3.8577843    0.0000000    2.8200000 *  3.0276228    2.3771201 *
  13 H       1.7592328 *  2.8200000 *  0.0000000    3.0276228    2.3771201 *
  14 H       2.4012080 *  3.0276228    3.0276228    0.0000000    1.7650496 *
  15 H       2.6769012 *  2.3771201 *  2.3771201 *  1.7650496 *  0.0000000  

  * ... LESS THAN  3.000


     ATOMIC BASIS SET
     ----------------
 THE CONTRACTED PRIMITIVE FUNCTIONS HAVE BEEN UNNORMALIZED
 THE CONTRACTED BASIS FUNCTIONS ARE NOW NORMALIZED TO UNITY

  SHELL TYPE  PRIMITIVE        EXPONENT          CONTRACTION COEFFICIENT(S)

 C         

      4   S       1           172.2560000    0.061766907377
      4   S       2            25.9109000    0.358794042852
      4   S       3             5.5333500    0.700713083689

      5   L       4             3.6649800   -0.395895162119    0.236459946619
      5   L       5             0.7705450    1.215834355681    0.860618805716

      6   L       6             0.1958570    1.000000000000    1.000000000000

 C         

     10   S       7           172.2560000    0.061766907377
     10   S       8            25.9109000    0.358794042852
     10   S       9             5.5333500    0.700713083689

     11   L      10             3.6649800   -0.395895162119    0.236459946619
     11   L      11             0.7705450    1.215834355681    0.860618805716

     12   L      12             0.1958570    1.000000000000    1.000000000000

 C         

     13   S      13           172.2560000    0.061766907377
     13   S      14            25.9109000    0.358794042852
     13   S      15             5.5333500    0.700713083689

     14   L      16             3.6649800   -0.395895162119    0.236459946619
     14   L      17             0.7705450    1.215834355681    0.860618805716

     15   L      18             0.1958570    1.000000000000    1.000000000000

 BR        

     22   S      19          6103.2899000    0.062417504532
     22   S      20           923.6974300    0.372041427015
     22   S      21           202.5203100    0.685872849803

     23   L      22           270.6015000   -0.112148696722    0.147751391942
     23   L      23            58.2535700    0.093144507277    0.601055667219
     23   L      24            18.4693300    0.961679371889    0.412870377483

     24   L      25            19.7614200   -0.293870414377    0.025007078757
     24   L      26             6.8217520    0.280266313711    0.486609775809
     24   L      27             2.2916290    0.902035744129    0.582423371046

     25   D      28            33.9650970    0.149666599796
     25   D      29             8.9008312    0.511747499302
     25   D      30             2.4284360    0.575914799215

     26   L      31             2.1312060   -0.651803166543    0.028708331275
     26   L      32             0.4993537    1.336012136394    0.984069543711

     27   L      33             0.1647637    1.000000000000    1.000000000000

 H         

     30   S      34             5.4471780    0.156284978695
     30   S      35             0.8245472    0.904690876670

     31   S      36             0.1831916    1.000000000000

 H         

     34   S      37             5.4471780    0.156284978695
     34   S      38             0.8245472    0.904690876670

     35   S      39             0.1831916    1.000000000000

 H         

     38   S      40             5.4471780    0.156284978695
     38   S      41             0.8245472    0.904690876670

     39   S      42             0.1831916    1.000000000000

 H         

     40   S      43             5.4471780    0.156284978695
     40   S      44             0.8245472    0.904690876670

     41   S      45             0.1831916    1.000000000000

 H         

     42   S      46             5.4471780    0.156284978695
     42   S      47             0.8245472    0.904690876670

     43   S      48             0.1831916    1.000000000000

 TOTAL NUMBER OF BASIS SET SHELLS             =   43
 NUMBER OF CARTESIAN GAUSSIAN BASIS FUNCTIONS =  107
 NUMBER OF ELECTRONS                          =  108
 CHARGE OF MOLECULE                           =    0
 SPIN MULTIPLICITY                            =    1
 NUMBER OF OCCUPIED ORBITALS (ALPHA)          =   54
 NUMBER OF OCCUPIED ORBITALS (BETA )          =   54
 TOTAL NUMBER OF ATOMS                        =   15
 THE NUCLEAR REPULSION ENERGY IS      811.1846107131

 SELECTED MURRAY-HANDY-LAMING RADIAL GRID

 LEGACY BECKE'S FUZZY CELL METHOD

 SELECTED ORIGINAL BECKE'S PARTITION FUNCTION

     LEBEDEV GRID-BASED DFT OPTIONS
     ------------------------------
     DFTTYP=B3LYP   
     NRAD  =      96     NLEB  =     590
     NRAD0 =      24     NLEB0 =     110
     SWOFF =    5.00E-03 (PURE SCF -> DFT)
     SWITCH=    3.00E-04 (COARSE -> TIGHT GRID)
     THRESH=    0.00E+00 GTHRE=    1.00E+00

 GRIMME'S EMPIRICAL DISPERSION CORRECTION= F

     $CONTRL OPTIONS
     ---------------
 SCFTYP=RHF          RUNTYP=OPTIMIZE     EXETYP=RUN     
 MPLEVL=       0     CITYP =NONE         CCTYP =NONE         VBTYP =NONE    
 DFTTYP=B3LYP        TDDFT =NONE    
 MULT  =       1     ICHARG=       0     NZVAR =       0     COORD =UNIQUE  
 PP    =NONE         RELWFN=NONE         LOCAL =NONE         NUMGRD=       F
 ISPHER=      -1     NOSYM =       0     MAXIT =     200     UNITS =ANGS    
 PLTORB=       F     MOLPLT=       F     AIMPAC=       F     FRIEND=        
 NPRINT=       7     IREST =       0     GEOM  =INPUT   
 NORMF =       0     NORMP =       0     ITOL  =      20     ICUT  =       9
 INTTYP=BEST         GRDTYP=BEST         QMTTOL= 1.0E-06

     $SYSTEM OPTIONS
     ---------------
  REPLICATED MEMORY=   250000000 WORDS (ON EVERY NODE).
 DISTRIBUTED MEMDDI=           0 MILLION WORDS IN AGGREGATE,
 MEMDDI DISTRIBUTED OVER   1 PROCESSORS IS           0 WORDS/PROCESSOR.
 TOTAL MEMORY REQUESTED ON EACH PROCESSOR=   250000000 WORDS.
 TIMLIM=        2879.00 MINUTES, OR       2.0 DAYS.
 PARALL= F  BALTYP=  DLB     KDIAG=    0  COREFL= F
 MXSEQ2=     300 MXSEQ3=     150  mem10=         0

          ----------------
          PROPERTIES INPUT
          ----------------

     MOMENTS            FIELD           POTENTIAL          DENSITY
 IEMOM =       1   IEFLD =       0   IEPOT =       0   IEDEN =       0
 WHERE =COMASS     WHERE =NUCLEI     WHERE =NUCLEI     WHERE =NUCLEI  
 OUTPUT=BOTH       OUTPUT=BOTH       OUTPUT=BOTH       OUTPUT=BOTH    
 IEMINT=       0   IEFINT=       0                     IEDINT=       0
                                                       MORB  =       0
          EXTRAPOLATION IN EFFECT
          DIIS IN EFFECT
 ORBITAL PRINTING OPTION: NPREO=     1   107     2     1

     -------------------------------
     INTEGRAL TRANSFORMATION OPTIONS
     -------------------------------
     NWORD  =            0
     CUTOFF = 1.0E-09     MPTRAN =       0
     DIRTRF =       T     AOINTS =DUP     

          ----------------------
          INTEGRAL INPUT OPTIONS
          ----------------------
 NOPK  =       1 NORDER=       0 SCHWRZ=       T

     ------------------------------------------
     THE POINT GROUP IS CS , NAXIS= 0, ORDER= 2
     ------------------------------------------

     DIMENSIONS OF THE SYMMETRY SUBSPACES ARE
 A'  =   58     A'' =   49

 ..... DONE SETTING UP THE RUN .....
 STEP CPU TIME =     0.01 TOTAL CPU TIME =          0.0 (      0.0 MIN)
 TOTAL WALL CLOCK TIME=          0.0 SECONDS, CPU UTILIZATION IS    50.00%


          -----------------------------
          STATIONARY POINT LOCATION RUN
          -----------------------------

 OBTAINING INITIAL HESSIAN, HESS=GUESS   
 CARTESIAN COORDINATE OPTIMIZATION USING BADGER'S RULE FORCE CONSTANT GUESS

          PARAMETERS CONTROLLING GEOMETRY SEARCH ARE
          METHOD =QA                  UPHESS =BFGS    
          NNEG   =         0          NFRZ   =         0
          NSTEP  =       999          IFOLOW =         1
          HESS   =GUESS               RESTAR =         F
          IHREP  =         0          HSSEND =         F
          NPRT   =         0          NPUN   =         0
          OPTTOL = 5.000E-04          RMIN   = 1.500E-03
          RMAX   = 1.000E-01          RLIM   = 7.000E-02
          DXMAX  = 3.000E-01          PURIFY =         F
          MOVIE  =         F          TRUPD  =         T
          TRMAX  = 5.000E-01          TRMIN  = 5.000E-02
          ITBMAT =         5          STPT   =         F
          STSTEP = 1.000E-02          PROJCT=          T

 BEGINNING GEOMETRY SEARCH POINT NSERCH=   0 ...

 COORDINATES OF SYMMETRY UNIQUE ATOMS (ANGS)
   ATOM   CHARGE       X              Y              Z
 ------------------------------------------------------------
 C           6.0  -0.7300000000   0.7500000000  -0.7700000000
 C           6.0  -0.0700000000   2.0600000000  -1.1900000000
 C           6.0  -0.2400000000   2.9800000000   0.0000000000
 BR         35.0   0.1600000000  -0.7600000000   1.7100000000
 H           1.0  -1.7600000000   0.7200000000  -1.1300000000
 H           1.0  -0.5400000000   2.4800000000  -2.0900000000
 H           1.0   0.9900000000   1.9400000000  -1.4100000000
 H           1.0  -1.2300000000   3.4400000000   0.0000000000
 H           1.0   0.5000000000   3.7900000000   0.0000000000
 COORDINATES OF ALL ATOMS ARE (ANGS)
   ATOM   CHARGE       X              Y              Z
 ------------------------------------------------------------
 C           6.0  -0.7300000000   0.7500000000   0.7700000000
 C           6.0  -0.7300000000   0.7500000000  -0.7700000000
 C           6.0  -0.0700000000   2.0600000000   1.1900000000
 C           6.0  -0.0700000000   2.0600000000  -1.1900000000
 C           6.0  -0.2400000000   2.9800000000   0.0000000000
 BR         35.0   0.1600000000  -0.7600000000  -1.7100000000
 BR         35.0   0.1600000000  -0.7600000000   1.7100000000
 H           1.0  -1.7600000000   0.7200000000   1.1300000000
 H           1.0  -1.7600000000   0.7200000000  -1.1300000000
 H           1.0  -0.5400000000   2.4800000000   2.0900000000
 H           1.0  -0.5400000000   2.4800000000  -2.0900000000
 H           1.0   0.9900000000   1.9400000000   1.4100000000
 H           1.0   0.9900000000   1.9400000000  -1.4100000000
 H           1.0  -1.2300000000   3.4400000000   0.0000000000
 H           1.0   0.5000000000   3.7900000000   0.0000000000

          ********************
          1 ELECTRON INTEGRALS
          ********************
 ...... END OF ONE-ELECTRON INTEGRALS ......
 STEP CPU TIME =     0.01 TOTAL CPU TIME =          0.0 (      0.0 MIN)
 TOTAL WALL CLOCK TIME=          0.0 SECONDS, CPU UTILIZATION IS    50.00%

          -------------
          GUESS OPTIONS
          -------------
          GUESS =HUCKEL            NORB  =       0          NORDER=       0
          MIX   =       F          PRTMO =       F          PUNMO =       F
          TOLZ  = 1.0E-08          TOLE  = 1.0E-05
          SYMDEN=       F          PURIFY=       F

 INITIAL GUESS ORBITALS GENERATED BY HUCKEL   ROUTINE.
 HUCKEL GUESS REQUIRES    114708 WORDS.

 SYMMETRIES FOR INITIAL GUESS ORBITALS FOLLOW.   BOTH SET(S).
    54 ORBITALS ARE OCCUPIED (   33 CORE ORBITALS).
    34=?A'     35=?A''    36=?A'     37=?A'     38=?A''    39=?A'     40=?A' 
    41=?A''    42=?A'     43=?A''    44=?A'     45=?A'     46=?A''    47=?A' 
    48=?A''    49=?A'     50=?A''    51=?A'     52=?A'     53=?A''    54=?A''
    55=?A'     56=?A''    57=?A'     58=?A''    59=?A'     60=A'      61=A'  
    62=A'      63=A'      64=A'  
 ...... END OF INITIAL ORBITAL SELECTION ......
 STEP CPU TIME =     0.14 TOTAL CPU TIME =          0.2 (      0.0 MIN)
 TOTAL WALL CLOCK TIME=          0.2 SECONDS, CPU UTILIZATION IS    80.00%

                    ----------------------
                    AO INTEGRAL TECHNOLOGY
                    ----------------------
     S,P,L SHELL ROTATED AXIS INTEGRALS, REPROGRAMMED BY
        KAZUYA ISHIMURA (IMS) AND JOSE SIERRA (SYNSTAR).
     S,P,D,L SHELL ROTATED AXIS INTEGRALS PROGRAMMED BY
        KAZUYA ISHIMURA (INSTITUTE FOR MOLECULAR SCIENCE).
     S,P,D,F,G SHELL TO TOTAL QUARTET ANGULAR MOMENTUM SUM 5,
        ERIC PROGRAM BY GRAHAM FLETCHER (ELORET AND NASA ADVANCED
        SUPERCOMPUTING DIVISION, AMES RESEARCH CENTER).
     S,P,D,F,G,L SHELL GENERAL RYS QUADRATURE PROGRAMMED BY
        MICHEL DUPUIS (PACIFIC NORTHWEST NATIONAL LABORATORY).

          --------------------
          2 ELECTRON INTEGRALS
          --------------------

 DIRECT SCF METHOD SKIPS INTEGRAL STORAGE ON DISK.
 DIRECT TRANSFORMATION SKIPS AO INTEGRAL STORAGE ON DISK.
  ...... END OF TWO-ELECTRON INTEGRALS .....
 STEP CPU TIME =     0.01 TOTAL CPU TIME =          0.2 (      0.0 MIN)
 TOTAL WALL CLOCK TIME=          0.2 SECONDS, CPU UTILIZATION IS    80.95%

          --------------------------
             R-B3LYP SCF CALCULATION
          --------------------------

     NUCLEAR ENERGY =       811.1846107131
     MAXIT =  200     NPUNCH=    2
     EXTRAP=T  DAMP=F  SHIFT=F  RSTRCT=F  DIIS=T  DEM=F  SOSCF=F
         DENSITY MATRIX CONVERGENCE THRESHOLD=  2.00E-05
     COARSE -> FINE DFT GRID SWITCH THRESHOLD=  3.00E-04 (SWITCH IN $DFT)
                   HF -> DFT SWITCH THRESHOLD=  5.00E-03 (SWOFF IN $DFT)
     MEMORY REQUIRED FOR RHF ITERS=   1087953 WORDS.

 DIRECT SCF CALCULATION, SCHWRZ=T   FDIFF=T,  DIRTHR=  0.00E+00 NITDIR=10
 SCHWARZ INEQUALITY OVERHEAD:      5208 INTEGRALS, T=        0.00

 DFT CODE IS SWITCHING FROM THE FINE GRID NRAD= 96,  NLEB=  590
                      TO THE COARSE GRID NRAD0= 24, NLEB0=  110

     EXCHANGE FUNCTIONAL   =B88&HFX   
     CORRELATION FUNCTIONAL=LYP88&VWN5
     DFT THRESHOLD         =.471E-08
     GRID CHANGE THRESHOLD =.300E-03
 FOR AN EULER-MACLAURIN QUADRATURE USING  96 RADIAL POINTS:
 SMALLEST GAUSSIAN PRIMITIVE EXPONENT=        0.1647637000 OF TYPE -P-
 ON ATOM NUMBER   6 HAS RADIAL NORMALIZATION=  1.000000
  LARGEST GAUSSIAN PRIMITIVE EXPONENT=     6103.2899000000 OF TYPE -S-
 ON ATOM NUMBER   6 HAS RADIAL NORMALIZATION=  1.000000
 DFT IS SWITCHED OFF, PERFORMING PURE SCF UNTIL SWOFF THRESHOLD IS REACHED.

                                                                                   NONZERO     BLOCKS
 ITER EX DEM     TOTAL ENERGY        E CHANGE  DENSITY CHANGE    DIIS ERROR      INTEGRALS    SKIPPED
   1  0  0    -5312.3406865459 -5312.3406865459   0.776469922   1.942232544        4863382      85467
          * * *   INITIATING DIIS PROCEDURE   * * *
   2  1  0    -5313.0015674181    -0.6608808722   0.072206293   0.054360864        4856412      88440
   3  2  0    -5313.0277854542    -0.0262180361   0.081716552   0.032065995        4820442      92699
   4  3  0    -5313.0354007283    -0.0076152740   0.020918131   0.007440306        4762607      97139
   5  4  0    -5313.0359284130    -0.0005276848   0.006102848   0.002295645        4672003     102131
   6  5  0    -5313.0359592500    -0.0000308370   0.001062996   0.000419255        4503480     108993
 CONVERGED TO SWOFF, SO DFT CALCULATION IS NOW SWITCHED ON.
          * * *   INITIATING DIIS PROCEDURE   * * *
   7  6  0    -5317.7348482790    -4.6988890290   0.112497693   0.167629591        4864935      85026
   8  7  0    -5317.7539378960    -0.0190896170   0.108034726   0.033024650        4830426      92203
   9  8  0    -5317.7501231292     0.0038147668   0.070010097   0.033832805        4800686      94020
  10  9  0    -5317.7612342833    -0.0111111542   0.006776526   0.004215491        4771889      96288
  11 10  0    -5317.7614069391    -0.0001726558   0.001285280   0.000861732        4572350     106998
  12 11  0    -5317.7614101345    -0.0000031954   0.000285135   0.000290233        4314194     114298
 DFT CODE IS SWITCHING BACK TO THE FINE GRID
          * * *   INITIATING DIIS PROCEDURE   * * *
  13 12  0    -5317.4779688506     0.2834412839   0.006660950   0.014915483        4865730      84672
  14 13  0    -5317.4781104811    -0.0001416306   0.006262188   0.001071464        4643136     103332
  15 14  0    -5317.4780936292     0.0000168519   0.003706367   0.001912325        4544152     107770
  16 15  0    -5317.4781247615    -0.0000311323   0.000183158   0.000131762        4456239     110667
  17 16  0    -5317.4781248152    -0.0000000537   0.000070007   0.000071266        3993675     125417
  18 17  0    -5317.4781248306    -0.0000000154   0.000012778   0.000011994        3736090     133311
  19 18  0    -5317.4781248311    -0.0000000005   0.000002744   0.000001712        3506851     140650

          -----------------
          DENSITY CONVERGED
          -----------------
     TIME TO FORM FOCK OPERATORS=      17.1 SECONDS (       0.9 SEC/ITER)
     FOCK TIME ON FIRST ITERATION=       0.2, LAST ITERATION=       2.0
     TIME TO SOLVE SCF EQUATIONS=       0.1 SECONDS (       0.0 SEC/ITER)

 FINAL R-B3LYP ENERGY IS    -5317.4781248311 AFTER  19 ITERATIONS
 DFT EXCHANGE + CORRELATION ENERGY =      -170.9414853162
 TOTAL ELECTRON NUMBER             =       108.0000135809

          ------------
          EIGENVECTORS
          ------------

                      1          2          3          4          5
                 -479.5242  -479.5241   -62.0781   -62.0780   -55.6828
                     A''        A'         A''        A'         A'' 
    1  C  1  S   -0.000017   0.000011  -0.000005   0.000005   0.000172
    2  C  1  S   -0.000205   0.000125   0.000079  -0.000008   0.001443
    3  C  1  X   -0.000089   0.000014   0.000081   0.000012   0.000534
    4  C  1  Y    0.000104  -0.000041  -0.000087   0.000006  -0.000597
    5  C  1  Z   -0.000038   0.000065   0.000011  -0.000082   0.000168
    6  C  1  S    0.000435  -0.000329  -0.000017  -0.000040  -0.002903
    7  C  1  X    0.000392   0.000006  -0.000178  -0.000190  -0.002690
    8  C  1  Y    0.000020  -0.000106  -0.000604   0.000383   0.000001
    9  C  1  Z   -0.000005  -0.000200   0.000197   0.000092   0.000437
   10  C  2  S    0.000017   0.000011   0.000005   0.000005  -0.000172
   11  C  2  S    0.000205   0.000125  -0.000079  -0.000008  -0.001443
   12  C  2  X    0.000089   0.000014  -0.000081   0.000012  -0.000534
   13  C  2  Y   -0.000104  -0.000041   0.000087   0.000006   0.000597
   14  C  2  Z   -0.000038  -0.000065   0.000011   0.000082   0.000168
   15  C  2  S   -0.000435  -0.000329   0.000017  -0.000040   0.002903
   16  C  2  X   -0.000392   0.000006   0.000178  -0.000190   0.002690
   17  C  2  Y   -0.000020  -0.000106   0.000604   0.000383  -0.000001
   18  C  2  Z   -0.000005   0.000200   0.000197  -0.000092   0.000437
   19  C  3  S    0.000012  -0.000011  -0.000015   0.000008  -0.000096
   20  C  3  S    0.000096  -0.000079  -0.000129   0.000080  -0.000688
   21  C  3  X    0.000036   0.000005  -0.000040  -0.000013  -0.000266
   22  C  3  Y   -0.000060   0.000040   0.000126  -0.000084   0.000326
   23  C  3  Z   -0.000007  -0.000026  -0.000006   0.000046   0.000074
   24  C  3  S   -0.000199   0.000254   0.000186  -0.000063   0.001664
   25  C  3  X   -0.000175  -0.000108   0.000075   0.000160   0.001432
   26  C  3  Y    0.000513  -0.000274  -0.000769   0.000424  -0.003299
   27  C  3  Z    0.000031   0.000115  -0.000006  -0.000270  -0.000309
   28  C  4  S   -0.000012  -0.000011   0.000015   0.000008   0.000096
   29  C  4  S   -0.000096  -0.000079   0.000129   0.000080   0.000688
   30  C  4  X   -0.000036   0.000005   0.000040  -0.000013   0.000266
   31  C  4  Y    0.000060   0.000040  -0.000126  -0.000084  -0.000326
   32  C  4  Z   -0.000007   0.000026  -0.000006  -0.000046   0.000074
   33  C  4  S    0.000199   0.000254  -0.000186  -0.000063  -0.001664
   34  C  4  X    0.000175  -0.000108  -0.000075   0.000160  -0.001432
   35  C  4  Y   -0.000513  -0.000274   0.000769   0.000424   0.003299
   36  C  4  Z    0.000031  -0.000115  -0.000006   0.000270  -0.000309
   37  C  5  S    0.000000  -0.000003   0.000000   0.000018   0.000000
   38  C  5  S    0.000000  -0.000018   0.000000   0.000122   0.000000
   39  C  5  X    0.000000  -0.000006   0.000000  -0.000019   0.000000
   40  C  5  Y    0.000000  -0.000020   0.000000   0.000017   0.000000
   41  C  5  Z    0.000030   0.000000  -0.000046   0.000000  -0.000202
   42  C  5  S    0.000000   0.000221   0.000000  -0.000730   0.000000
   43  C  5  X    0.000000   0.000085   0.000000  -0.000019   0.000000
   44  C  5  Y    0.000000   0.000071   0.000000   0.000113   0.000000
   45  C  5  Z   -0.000332   0.000000   0.000538   0.000000   0.002058
   46  BR 6  S    0.695418   0.695426  -0.234038  -0.234051   0.000358
   47  BR 6  S    0.039610   0.039541   0.721504   0.721626  -0.001390
   48  BR 6  X   -0.000005  -0.000004  -0.000417  -0.000417  -0.308324
   49  BR 6  Y    0.000011   0.000009   0.000668   0.000669   0.510420
   50  BR 6  Z    0.000013   0.000001   0.000390   0.000399   0.351249
   51  BR 6  S   -0.016861  -0.017427   0.067824   0.068760  -0.003323
   52  BR 6  X    0.000011   0.000008  -0.000062  -0.000061  -0.017778
   53  BR 6  Y   -0.000032  -0.000023   0.000122   0.000116   0.029509
   54  BR 6  Z   -0.000041   0.000002   0.000122   0.000033   0.020349
   55  BR 6 XX    0.003371   0.003628  -0.015546  -0.015950   0.001465
   56  BR 6 YY    0.003375   0.003629  -0.015524  -0.015927   0.001473
   57  BR 6 ZZ    0.003372   0.003627  -0.015544  -0.015948   0.001458
   58  BR 6 XY   -0.000001  -0.000001  -0.000028  -0.000025  -0.000027
   59  BR 6 XZ   -0.000001   0.000000  -0.000019  -0.000018  -0.000016
   60  BR 6 YZ    0.000003   0.000000   0.000028   0.000028   0.000014
   61  BR 6  S    0.003673   0.003381  -0.005443  -0.004847  -0.001955
   62  BR 6  X   -0.000047  -0.000030   0.000111   0.000098   0.006341
   63  BR 6  Y    0.000130   0.000092  -0.000271  -0.000233  -0.010795
   64  BR 6  Z    0.000167  -0.000010  -0.000368   0.000004  -0.007611
   65  BR 6  S   -0.001835  -0.001589   0.003860   0.003144   0.001612
   66  BR 6  X    0.000052   0.000028  -0.000311  -0.000220  -0.003172
   67  BR 6  Y   -0.000121  -0.000113   0.000600   0.000491   0.005396
   68  BR 6  Z   -0.000207   0.000018   0.000693   0.000092   0.004018
   69  BR 7  S   -0.695418   0.695426   0.234038  -0.234051  -0.000358
   70  BR 7  S   -0.039610   0.039541  -0.721504   0.721626   0.001390
   71  BR 7  X    0.000005  -0.000004   0.000417  -0.000417   0.308324
   72  BR 7  Y   -0.000011   0.000009  -0.000668   0.000669  -0.510420
   73  BR 7  Z    0.000013  -0.000001   0.000390  -0.000399   0.351249
   74  BR 7  S    0.016861  -0.017427  -0.067824   0.068760   0.003323
   75  BR 7  X   -0.000011   0.000008   0.000062  -0.000061   0.017778
   76  BR 7  Y    0.000032  -0.000023  -0.000122   0.000116  -0.029509
   77  BR 7  Z   -0.000041  -0.000002   0.000122  -0.000033   0.020349
   78  BR 7 XX   -0.003371   0.003628   0.015546  -0.015950  -0.001465
   79  BR 7 YY   -0.003375   0.003629   0.015524  -0.015927  -0.001473
   80  BR 7 ZZ   -0.003372   0.003627   0.015544  -0.015948  -0.001458
   81  BR 7 XY    0.000001  -0.000001   0.000028  -0.000025   0.000027
   82  BR 7 XZ   -0.000001  -0.000000  -0.000019   0.000018  -0.000016
   83  BR 7 YZ    0.000003  -0.000000   0.000028  -0.000028   0.000014
   84  BR 7  S   -0.003673   0.003381   0.005443  -0.004847   0.001955
   85  BR 7  X    0.000047  -0.000030  -0.000111   0.000098  -0.006341
   86  BR 7  Y   -0.000130   0.000092   0.000271  -0.000233   0.010795
   87  BR 7  Z    0.000167   0.000010  -0.000368  -0.000004  -0.007611
   88  BR 7  S    0.001835  -0.001589  -0.003860   0.003144  -0.001612
   89  BR 7  X   -0.000052   0.000028   0.000311  -0.000220   0.003172
   90  BR 7  Y    0.000121  -0.000113  -0.000600   0.000491  -0.005396
   91  BR 7  Z   -0.000207  -0.000018   0.000693  -0.000092   0.004018
   92  H  8  S    0.000056   0.000008  -0.000129   0.000047  -0.000296
   93  H  8  S   -0.000038   0.000154   0.000163  -0.000278   0.000178
   94  H  9  S   -0.000056   0.000008   0.000129   0.000047   0.000296
   95  H  9  S    0.000038   0.000154  -0.000163  -0.000278  -0.000178
   96  H 10  S   -0.000018  -0.000038   0.000020   0.000039   0.000118
   97  H 10  S   -0.000087  -0.000033   0.000089   0.000061   0.000631
   98  H 11  S    0.000018  -0.000038  -0.000020   0.000039  -0.000118
   99  H 11  S    0.000087  -0.000033  -0.000089   0.000061  -0.000631
  100  H 12  S    0.000103  -0.000052  -0.000163   0.000089  -0.000586
  101  H 12  S    0.000003   0.000081   0.000183  -0.000221  -0.000463
  102  H 13  S   -0.000103  -0.000052   0.000163   0.000089   0.000586
  103  H 13  S   -0.000003   0.000081  -0.000183  -0.000221   0.000463
  104  H 14  S    0.000000  -0.000000   0.000000   0.000043   0.000000
  105  H 14  S    0.000000  -0.000011   0.000000   0.000054   0.000000
  106  H 15  S    0.000000  -0.000029   0.000000   0.000045   0.000000
  107  H 15  S    0.000000  -0.000052   0.000000   0.000015   0.000000

                      6          7          8          9         10
                  -55.6825   -55.6781   -55.6780   -55.6779   -55.6778
                     A'         A''        A''        A'         A'  
    1  C  1  S   -0.000097  -0.000054  -0.000001  -0.000001   0.000009
    2  C  1  S   -0.000700  -0.000305   0.000003  -0.000014   0.000169
    3  C  1  X   -0.000007  -0.000008   0.000122   0.000042   0.000041
    4  C  1  Y    0.000127  -0.000078  -0.000093   0.000139   0.000007
    5  C  1  Z   -0.000376  -0.000090   0.000030  -0.000058  -0.000155
    6  C  1  S    0.001499   0.001733   0.000061   0.000097   0.000129
    7  C  1  X   -0.000241   0.000458  -0.000396  -0.000361  -0.000237
    8  C  1  Y    0.001081  -0.000023   0.000054  -0.000455  -0.000021
    9  C  1  Z    0.001251  -0.000135  -0.000448   0.000139   0.000660
   10  C  2  S   -0.000097   0.000054   0.000001  -0.000001   0.000009
   11  C  2  S   -0.000700   0.000305  -0.000003  -0.000014   0.000169
   12  C  2  X   -0.000007   0.000008  -0.000122   0.000042   0.000041
   13  C  2  Y    0.000127   0.000078   0.000093   0.000139   0.000007
   14  C  2  Z    0.000376  -0.000090   0.000030   0.000058   0.000155
   15  C  2  S    0.001499  -0.001733  -0.000061   0.000097   0.000129
   16  C  2  X   -0.000241  -0.000458   0.000396  -0.000361  -0.000237
   17  C  2  Y    0.001081   0.000023  -0.000054  -0.000455  -0.000021
   18  C  2  Z   -0.001251  -0.000135  -0.000448  -0.000139  -0.000660
   19  C  3  S    0.000084   0.000018  -0.000021   0.000002  -0.000004
   20  C  3  S    0.000590   0.000105  -0.000186   0.000032  -0.000060
   21  C  3  X   -0.000026   0.000000   0.000016  -0.000027  -0.000040
   22  C  3  Y   -0.000220  -0.000102   0.000229  -0.000197   0.000053
   23  C  3  Z    0.000141   0.000196   0.000047   0.000088  -0.000079
   24  C  3  S   -0.002063  -0.000270  -0.000284   0.000660  -0.000202
   25  C  3  X    0.000674   0.000031  -0.000121   0.000142   0.000425
   26  C  3  Y    0.001759   0.001025  -0.001328   0.000743  -0.000404
   27  C  3  Z   -0.000687  -0.000830   0.000000  -0.000594   0.000434
   28  C  4  S    0.000084  -0.000018   0.000021   0.000002  -0.000004
   29  C  4  S    0.000590  -0.000105   0.000186   0.000032  -0.000060
   30  C  4  X   -0.000026  -0.000000  -0.000016  -0.000027  -0.000040
   31  C  4  Y   -0.000220   0.000102  -0.000229  -0.000197   0.000053
   32  C  4  Z   -0.000141   0.000196   0.000047  -0.000088   0.000079
   33  C  4  S   -0.002063   0.000270   0.000284   0.000660  -0.000202
   34  C  4  X    0.000674  -0.000031   0.000121   0.000142   0.000425
   35  C  4  Y    0.001759  -0.001025   0.001328   0.000743  -0.000404
   36  C  4  Z    0.000687  -0.000830   0.000000   0.000594  -0.000434
   37  C  5  S    0.000011   0.000000   0.000000   0.000022  -0.000041
   38  C  5  S    0.000068   0.000000   0.000000   0.000095  -0.000294
   39  C  5  X    0.000049   0.000000   0.000000  -0.000058   0.000020
   40  C  5  Y    0.000117   0.000000   0.000000   0.000135   0.000042
   41  C  5  Z    0.000000  -0.000002  -0.000044   0.000000   0.000000
   42  C  5  S   -0.001126   0.000000   0.000000  -0.001462   0.001332
   43  C  5  X   -0.000551   0.000000   0.000000  -0.000009  -0.000228
   44  C  5  Y   -0.000480   0.000000   0.000000  -0.000132  -0.000597
   45  C  5  Z    0.000000  -0.000842   0.000921   0.000000   0.000000
   46  BR 6  S    0.000327   0.000003   0.000005   0.000011  -0.000026
   47  BR 6  S   -0.001148  -0.000160  -0.000074  -0.000092   0.000180
   48  BR 6  X   -0.316198   0.085852   0.613707   0.515860   0.336169
   49  BR 6  Y    0.517462  -0.353407   0.305914   0.427424  -0.169102
   50  BR 6  Z    0.333599   0.588872   0.094116  -0.174088   0.580968
   51  BR 6  S   -0.001520  -0.001615  -0.000701  -0.000649   0.001047
   52  BR 6  X   -0.018182   0.004929   0.035216   0.029543   0.019252
   53  BR 6  Y    0.029811  -0.020313   0.017597   0.024518  -0.009694
   54  BR 6  Z    0.019166   0.033927   0.005434  -0.009952   0.033226
   55  BR 6 XX    0.000640   0.000663   0.000270   0.000246  -0.000456
   56  BR 6 YY    0.000670   0.000639   0.000340   0.000329  -0.000455
   57  BR 6 ZZ    0.000643   0.000720   0.000318   0.000273  -0.000402
   58  BR 6 XY   -0.000033   0.000012   0.000029   0.000019   0.000031
   59  BR 6 XZ   -0.000026  -0.000022   0.000020   0.000026  -0.000009
   60  BR 6 YZ    0.000041   0.000030   0.000014   0.000003   0.000029
   61  BR 6  S   -0.000916  -0.001130  -0.000430  -0.000413   0.000732
   62  BR 6  X    0.006294  -0.001678  -0.012026  -0.009882  -0.006447
   63  BR 6  Y   -0.010541   0.007034  -0.006178  -0.008356   0.003296
   64  BR 6  Z   -0.006568  -0.012172  -0.001993   0.003241  -0.010888
   65  BR 6  S    0.001036   0.001576   0.000360   0.000404  -0.000995
   66  BR 6  X   -0.003064   0.000665   0.005724   0.004504   0.002974
   67  BR 6  Y    0.005397  -0.003190   0.003001   0.003899  -0.001663
   68  BR 6  Z    0.003200   0.006740   0.001073  -0.001342   0.004451
   69  BR 7  S    0.000327  -0.000003  -0.000005   0.000011  -0.000026
   70  BR 7  S   -0.001148   0.000160   0.000074  -0.000092   0.000180
   71  BR 7  X   -0.316198  -0.085852  -0.613707   0.515860   0.336169
   72  BR 7  Y    0.517462   0.353407  -0.305914   0.427424  -0.169102
   73  BR 7  Z   -0.333599   0.588872   0.094116   0.174088  -0.580968
   74  BR 7  S   -0.001520   0.001615   0.000701  -0.000649   0.001047
   75  BR 7  X   -0.018182  -0.004929  -0.035216   0.029543   0.019252
   76  BR 7  Y    0.029811   0.020313  -0.017597   0.024518  -0.009694
   77  BR 7  Z   -0.019166   0.033927   0.005434   0.009952  -0.033226
   78  BR 7 XX    0.000640  -0.000663  -0.000270   0.000246  -0.000456
   79  BR 7 YY    0.000670  -0.000639  -0.000340   0.000329  -0.000455
   80  BR 7 ZZ    0.000643  -0.000720  -0.000318   0.000273  -0.000402
   81  BR 7 XY   -0.000033  -0.000012  -0.000029   0.000019   0.000031
   82  BR 7 XZ    0.000026  -0.000022   0.000020  -0.000026   0.000009
   83  BR 7 YZ   -0.000041   0.000030   0.000014  -0.000003  -0.000029
   84  BR 7  S   -0.000916   0.001130   0.000430  -0.000413   0.000732
   85  BR 7  X    0.006294   0.001678   0.012026  -0.009882  -0.006447
   86  BR 7  Y   -0.010541  -0.007034   0.006178  -0.008356   0.003296
   87  BR 7  Z    0.006568  -0.012172  -0.001993  -0.003241   0.010888
   88  BR 7  S    0.001036  -0.001576  -0.000360   0.000404  -0.000995
   89  BR 7  X   -0.003064  -0.000665  -0.005724   0.004504   0.002974
   90  BR 7  Y    0.005397   0.003190  -0.003001   0.003899  -0.001663
   91  BR 7  Z   -0.003200   0.006740   0.001073   0.001342  -0.004451
   92  H  8  S   -0.000096  -0.000002   0.000177  -0.000134  -0.000165
   93  H  8  S   -0.001081  -0.000235  -0.000846   0.000111   0.000252
   94  H  9  S   -0.000096   0.000002  -0.000177  -0.000134  -0.000165
   95  H  9  S   -0.001081   0.000235   0.000846   0.000111   0.000252
   96  H 10  S    0.000267   0.000146   0.000042   0.000042  -0.000042
   97  H 10  S    0.000216   0.000098   0.000200   0.000033   0.000085
   98  H 11  S    0.000267  -0.000146  -0.000042   0.000042  -0.000042
   99  H 11  S    0.000216  -0.000098  -0.000200   0.000033   0.000085
  100  H 12  S    0.000259   0.000134  -0.000358   0.000293  -0.000035
  101  H 12  S   -0.000277  -0.000063   0.000962  -0.000924  -0.000326
  102  H 13  S    0.000259  -0.000134   0.000358   0.000293  -0.000035
  103  H 13  S   -0.000277   0.000063  -0.000962  -0.000924  -0.000326
  104  H 14  S   -0.000008   0.000000   0.000000   0.000100  -0.000091
  105  H 14  S    0.000017   0.000000   0.000000   0.000155  -0.000119
  106  H 15  S    0.000181   0.000000   0.000000   0.000068  -0.000034
  107  H 15  S    0.000279   0.000000   0.000000   0.000261   0.000157

                     11         12         13         14         15
                  -10.1854   -10.1845   -10.1289   -10.1284   -10.1253
                     A''        A'         A''        A'         A'  
    1  C  1  S    0.698185   0.697502   0.003545   0.005507   0.003969
    2  C  1  S    0.084228   0.079365  -0.001523  -0.001451  -0.001505
    3  C  1  X    0.000256   0.000014   0.000172  -0.000325   0.000248
    4  C  1  Y    0.000057   0.000174   0.000289   0.000406  -0.001103
    5  C  1  Z    0.000253  -0.000115  -0.000568   0.000429   0.000243
    6  C  1  S   -0.092262  -0.053362   0.022375   0.015301   0.003772
    7  C  1  X   -0.001530  -0.000661   0.005544   0.004629  -0.001489
    8  C  1  Y   -0.009585  -0.005951   0.012892   0.007589   0.003440
    9  C  1  Z    0.016014  -0.006431   0.000833   0.002222   0.000352
   10  C  2  S   -0.698185   0.697502  -0.003545   0.005507   0.003969
   11  C  2  S   -0.084228   0.079365   0.001523  -0.001451  -0.001505
   12  C  2  X   -0.000256   0.000014  -0.000172  -0.000325   0.000248
   13  C  2  Y   -0.000057   0.000174  -0.000289   0.000406  -0.001103
   14  C  2  Z    0.000253   0.000115  -0.000568  -0.000429  -0.000243
   15  C  2  S    0.092262  -0.053362  -0.022375   0.015301   0.003772
   16  C  2  X    0.001530  -0.000661  -0.005544   0.004629  -0.001489
   17  C  2  Y    0.009585  -0.005951  -0.012892   0.007589   0.003440
   18  C  2  Z    0.016014   0.006431   0.000833  -0.002222  -0.000352
   19  C  3  S   -0.004193  -0.006619   0.698064   0.687549   0.117808
   20  C  3  S   -0.002525  -0.003266   0.084094   0.079593   0.010953
   21  C  3  X   -0.000223   0.000152   0.000315  -0.000498   0.000024
   22  C  3  Y   -0.000958   0.000120   0.000051  -0.000143   0.000082
   23  C  3  Z   -0.000214   0.000465  -0.001475   0.000396  -0.000256
   24  C  3  S    0.022259   0.016604  -0.080182  -0.074926   0.013568
   25  C  3  X   -0.005818  -0.003711   0.001324   0.005052  -0.000561
   26  C  3  Y   -0.008353  -0.008878   0.003146  -0.001223   0.009230
   27  C  3  Z   -0.005411  -0.002430   0.011309   0.006325  -0.011329
   28  C  4  S    0.004193  -0.006619  -0.698064   0.687549   0.117808
   29  C  4  S    0.002525  -0.003266  -0.084094   0.079593   0.010953
   30  C  4  X    0.000223   0.000152  -0.000315  -0.000498   0.000024
   31  C  4  Y    0.000958   0.000120  -0.000051  -0.000143   0.000082
   32  C  4  Z   -0.000214  -0.000465  -0.001475  -0.000396   0.000256
   33  C  4  S   -0.022259   0.016604   0.080182  -0.074926   0.013568
   34  C  4  X    0.005818  -0.003711  -0.001324   0.005052  -0.000561
   35  C  4  Y    0.008353  -0.008878  -0.003146  -0.001223   0.009230
   36  C  4  Z   -0.005411   0.002430   0.011309  -0.006325   0.011329
   37  C  5  S    0.000000  -0.004672   0.000000  -0.167574   0.972551
   38  C  5  S    0.000000  -0.002814   0.000000  -0.023216   0.114005
   39  C  5  X    0.000000   0.000668   0.000000   0.000063  -0.000172
   40  C  5  Y    0.000000   0.001376   0.000000  -0.000073  -0.000805
   41  C  5  Z   -0.001048   0.000000   0.000689   0.000000   0.000000
   42  C  5  S    0.000000   0.002100   0.000000   0.051744  -0.100383
   43  C  5  X    0.000000  -0.003522   0.000000   0.000554  -0.000692
   44  C  5  Y    0.000000  -0.002950   0.000000  -0.013754   0.010074
   45  C  5  Z   -0.000830   0.000000   0.017377   0.000000   0.000000
   46  BR 6  S    0.000055  -0.000031  -0.000017   0.000014   0.000004
   47  BR 6  S   -0.000052  -0.000116   0.000176  -0.000097  -0.000147
   48  BR 6  X    0.000074  -0.000041  -0.000010   0.000024   0.000016
   49  BR 6  Y   -0.000130   0.000055   0.000062  -0.000046  -0.000018
   50  BR 6  Z   -0.000067   0.000001   0.000029  -0.000020   0.000012
   51  BR 6  S   -0.000260  -0.000871   0.001148  -0.000636  -0.000952
   52  BR 6  X   -0.000260   0.000145   0.000035  -0.000085  -0.000055
   53  BR 6  Y    0.000455  -0.000194  -0.000215   0.000160   0.000066
   54  BR 6  Z    0.000231  -0.000007  -0.000102   0.000068  -0.000040
   55  BR 6 XX    0.000643  -0.000070  -0.000504   0.000330   0.000293
   56  BR 6 YY    0.000468   0.000100  -0.000441   0.000272   0.000317
   57  BR 6 ZZ    0.000564  -0.000069  -0.000490   0.000324   0.000301
   58  BR 6 XY    0.000129  -0.000146   0.000001   0.000012  -0.000011
   59  BR 6 XZ    0.000103  -0.000073   0.000017  -0.000007  -0.000012
   60  BR 6 YZ   -0.000203   0.000143   0.000012  -0.000022   0.000017
   61  BR 6  S    0.001006  -0.001751   0.001032  -0.000442  -0.001149
   62  BR 6  X    0.000963  -0.000529  -0.000166   0.000359   0.000257
   63  BR 6  Y   -0.001538   0.000588   0.000862  -0.000600  -0.000408
   64  BR 6  Z   -0.000582  -0.000056   0.000414  -0.000259   0.000119
   65  BR 6  S   -0.006754   0.007602  -0.001324  -0.000155   0.002465
   66  BR 6  X    0.000975  -0.001984   0.000821  -0.000580  -0.000812
   67  BR 6  Y   -0.003036   0.004590  -0.000732  -0.000182   0.001632
   68  BR 6  Z   -0.003617   0.002772  -0.000820   0.000204   0.000437
   69  BR 7  S   -0.000055  -0.000031   0.000017   0.000014   0.000004
   70  BR 7  S    0.000052  -0.000116  -0.000176  -0.000097  -0.000147
   71  BR 7  X   -0.000074  -0.000041   0.000010   0.000024   0.000016
   72  BR 7  Y    0.000130   0.000055  -0.000062  -0.000046  -0.000018
   73  BR 7  Z   -0.000067  -0.000001   0.000029   0.000020  -0.000012
   74  BR 7  S    0.000260  -0.000871  -0.001148  -0.000636  -0.000952
   75  BR 7  X    0.000260   0.000145  -0.000035  -0.000085  -0.000055
   76  BR 7  Y   -0.000455  -0.000194   0.000215   0.000160   0.000066
   77  BR 7  Z    0.000231   0.000007  -0.000102  -0.000068   0.000040
   78  BR 7 XX   -0.000643  -0.000070   0.000504   0.000330   0.000293
   79  BR 7 YY   -0.000468   0.000100   0.000441   0.000272   0.000317
   80  BR 7 ZZ   -0.000564  -0.000069   0.000490   0.000324   0.000301
   81  BR 7 XY   -0.000129  -0.000146  -0.000001   0.000012  -0.000011
   82  BR 7 XZ    0.000103   0.000073   0.000017   0.000007   0.000012
   83  BR 7 YZ   -0.000203  -0.000143   0.000012   0.000022  -0.000017
   84  BR 7  S   -0.001006  -0.001751  -0.001032  -0.000442  -0.001149
   85  BR 7  X   -0.000963  -0.000529   0.000166   0.000359   0.000257
   86  BR 7  Y    0.001538   0.000588  -0.000862  -0.000600  -0.000408
   87  BR 7  Z   -0.000582   0.000056   0.000414   0.000259  -0.000119
   88  BR 7  S    0.006754   0.007602   0.001324  -0.000155   0.002465
   89  BR 7  X   -0.000975  -0.001984  -0.000821  -0.000580  -0.000812
   90  BR 7  Y    0.003036   0.004590   0.000732  -0.000182   0.001632
   91  BR 7  Z   -0.003617  -0.002772  -0.000820  -0.000204  -0.000437
   92  H  8  S    0.001723  -0.000393  -0.001273  -0.000856  -0.000445
   93  H  8  S    0.011262   0.012192   0.001053   0.001303  -0.001766
   94  H  9  S   -0.001723  -0.000393   0.001273  -0.000856  -0.000445
   95  H  9  S   -0.011262   0.012192  -0.001053   0.001303  -0.001766
   96  H 10  S   -0.001023  -0.000921   0.000473   0.000651  -0.001183
   97  H 10  S   -0.000207   0.000735   0.008056   0.012573   0.002425
   98  H 11  S    0.001023  -0.000921  -0.000473   0.000651  -0.001183
   99  H 11  S    0.000207   0.000735  -0.008056   0.012573   0.002425
  100  H 12  S   -0.001126  -0.000897   0.001093   0.000114  -0.001497
  101  H 12  S    0.001158  -0.000225   0.012846   0.009817   0.002607
  102  H 13  S    0.001126  -0.000897  -0.001093   0.000114  -0.001497
  103  H 13  S   -0.001158  -0.000225  -0.012846   0.009817   0.002607
  104  H 14  S    0.000000  -0.000600   0.000000  -0.002364   0.000407
  105  H 14  S    0.000000  -0.001735   0.000000  -0.001866   0.016197
  106  H 15  S    0.000000   0.000049   0.000000  -0.001653   0.000313
  107  H 15  S    0.000000   0.003513   0.000000  -0.001806   0.014616

                     16         17         18         19         20
                   -8.5919    -8.5918    -6.3867    -6.3867    -6.3708
                     A''        A'         A''        A'         A'' 
    1  C  1  S   -0.000015   0.000021  -0.000139   0.000089  -0.000016
    2  C  1  S   -0.000278   0.000054  -0.000689   0.000234  -0.000084
    3  C  1  X   -0.000102  -0.000076  -0.000058  -0.000141  -0.000058
    4  C  1  Y    0.000064   0.000082  -0.000039   0.000208  -0.000015
    5  C  1  Z    0.000038   0.000099   0.000096  -0.000021  -0.000031
    6  C  1  S    0.000550  -0.000050   0.001935  -0.000630   0.000480
    7  C  1  X    0.000291   0.000423   0.001012   0.000187   0.000457
    8  C  1  Y    0.001407  -0.000907   0.000280  -0.000704   0.000101
    9  C  1  Z   -0.000611  -0.000223  -0.000604  -0.000545   0.000210
   10  C  2  S    0.000015   0.000021   0.000139   0.000089   0.000016
   11  C  2  S    0.000278   0.000054   0.000689   0.000234   0.000084
   12  C  2  X    0.000102  -0.000076   0.000058  -0.000141   0.000058
   13  C  2  Y   -0.000064   0.000082   0.000039   0.000208   0.000015
   14  C  2  Z    0.000038  -0.000099   0.000096   0.000021  -0.000031
   15  C  2  S   -0.000550  -0.000050  -0.001935  -0.000630  -0.000480
   16  C  2  X   -0.000291   0.000423  -0.001012   0.000187  -0.000457
   17  C  2  Y   -0.001407  -0.000907  -0.000280  -0.000704  -0.000101
   18  C  2  Z   -0.000611   0.000223  -0.000604   0.000545   0.000210
   19  C  3  S    0.000020  -0.000011   0.000049  -0.000043   0.000016
   20  C  3  S    0.000270  -0.000183   0.000309  -0.000268   0.000084
   21  C  3  X    0.000075   0.000027   0.000102   0.000015  -0.000011
   22  C  3  Y   -0.000214   0.000153  -0.000063   0.000049  -0.000068
   23  C  3  Z    0.000014  -0.000088  -0.000030  -0.000044   0.000053
   24  C  3  S   -0.000565   0.000283  -0.001045   0.001119  -0.000090
   25  C  3  X   -0.000047  -0.000401  -0.000475  -0.000367   0.000114
   26  C  3  Y    0.001600  -0.000945   0.001415  -0.000827   0.000842
   27  C  3  Z    0.000061   0.000522   0.000226   0.000213  -0.000312
   28  C  4  S   -0.000020  -0.000011  -0.000049  -0.000043  -0.000016
   29  C  4  S   -0.000270  -0.000183  -0.000309  -0.000268  -0.000084
   30  C  4  X   -0.000075   0.000027  -0.000102   0.000015   0.000011
   31  C  4  Y    0.000214   0.000153   0.000063   0.000049   0.000068
   32  C  4  Z    0.000014   0.000088  -0.000030   0.000044   0.000053
   33  C  4  S    0.000565   0.000283   0.001045   0.001119   0.000090
   34  C  4  X    0.000047  -0.000401   0.000475  -0.000367  -0.000114
   35  C  4  Y   -0.001600  -0.000945  -0.001415  -0.000827  -0.000842
   36  C  4  Z    0.000061  -0.000522   0.000226  -0.000213  -0.000312
   37  C  5  S    0.000000  -0.000024   0.000000  -0.000001   0.000000
   38  C  5  S    0.000000  -0.000215   0.000000   0.000001   0.000000
   39  C  5  X    0.000000   0.000036   0.000000  -0.000020   0.000000
   40  C  5  Y    0.000000  -0.000036   0.000000  -0.000048   0.000000
   41  C  5  Z    0.000087   0.000000   0.000079   0.000000   0.000001
   42  C  5  S    0.000000   0.001410   0.000000   0.000324   0.000000
   43  C  5  X    0.000000   0.000054   0.000000   0.000230   0.000000
   44  C  5  Y    0.000000  -0.000190   0.000000   0.000270   0.000000
   45  C  5  Z   -0.001033   0.000000  -0.000730   0.000000  -0.000572
   46  BR 6  S    0.093113   0.093125  -0.000775  -0.000770  -0.000029
   47  BR 6  S   -0.339544  -0.339705   0.002922   0.002863   0.000079
   48  BR 6  X    0.001183   0.001183   0.141994   0.142010  -0.156934
   49  BR 6  Y   -0.001890  -0.001892  -0.226757  -0.226758  -0.207709
   50  BR 6  Z   -0.001061  -0.001108  -0.151490  -0.151515   0.163820
   51  BR 6  S    0.771779   0.770813  -0.006529  -0.006850  -0.000475
   52  BR 6  X   -0.002828  -0.002828  -0.344672  -0.344715   0.381031
   53  BR 6  Y    0.004502   0.004512   0.550411   0.550425   0.504302
   54  BR 6  Z    0.002497   0.002663   0.367711   0.367789  -0.397739
   55  BR 6 XX   -0.005137  -0.004770  -0.000365  -0.000233  -0.001046
   56  BR 6 YY   -0.004444  -0.004079   0.001099   0.001225   0.002279
   57  BR 6 ZZ   -0.005076  -0.004711  -0.000385  -0.000257  -0.001011
   58  BR 6 XY   -0.000813  -0.000817  -0.001717  -0.001715   0.000175
   59  BR 6 XZ   -0.000550  -0.000551  -0.001064  -0.001062   0.001205
   60  BR 6 YZ    0.000868   0.000867   0.001710   0.001704  -0.000272
   61  BR 6  S    0.034218   0.033172   0.000882   0.000518  -0.000240
   62  BR 6  X   -0.000418  -0.000396  -0.013852  -0.013760   0.014713
   63  BR 6  Y    0.000863   0.000802   0.022253   0.022085   0.019572
   64  BR 6  Z    0.000928   0.000167   0.014929   0.014667  -0.015528
   65  BR 6  S   -0.010557  -0.009092  -0.000795  -0.000513   0.000490
   66  BR 6  X    0.000695   0.000511   0.002563   0.002469  -0.002565
   67  BR 6  Y   -0.001314  -0.001110  -0.004147  -0.004106  -0.003347
   68  BR 6  Z   -0.001505  -0.000213  -0.002899  -0.002609   0.003049
   69  BR 7  S   -0.093113   0.093125   0.000775  -0.000770   0.000029
   70  BR 7  S    0.339544  -0.339705  -0.002922   0.002863  -0.000079
   71  BR 7  X   -0.001183   0.001183  -0.141994   0.142010   0.156934
   72  BR 7  Y    0.001890  -0.001892   0.226757  -0.226758   0.207709
   73  BR 7  Z   -0.001061   0.001108  -0.151490   0.151515   0.163820
   74  BR 7  S   -0.771779   0.770813   0.006529  -0.006850   0.000475
   75  BR 7  X    0.002828  -0.002828   0.344672  -0.344715  -0.381031
   76  BR 7  Y   -0.004502   0.004512  -0.550411   0.550425  -0.504302
   77  BR 7  Z    0.002497  -0.002663   0.367711  -0.367789  -0.397739
   78  BR 7 XX    0.005137  -0.004770   0.000365  -0.000233   0.001046
   79  BR 7 YY    0.004444  -0.004079  -0.001099   0.001225  -0.002279
   80  BR 7 ZZ    0.005076  -0.004711   0.000385  -0.000257   0.001011
   81  BR 7 XY    0.000813  -0.000817   0.001717  -0.001715  -0.000175
   82  BR 7 XZ   -0.000550   0.000551  -0.001064   0.001062   0.001205
   83  BR 7 YZ    0.000868  -0.000867   0.001710  -0.001704  -0.000272
   84  BR 7  S   -0.034218   0.033172  -0.000882   0.000518   0.000240
   85  BR 7  X    0.000418  -0.000396   0.013852  -0.013760  -0.014713
   86  BR 7  Y   -0.000863   0.000802  -0.022253   0.022085  -0.019572
   87  BR 7  Z    0.000928  -0.000167   0.014929  -0.014667  -0.015528
   88  BR 7  S    0.010557  -0.009092   0.000795  -0.000513  -0.000490
   89  BR 7  X   -0.000695   0.000511  -0.002563   0.002469   0.002565
   90  BR 7  Y    0.001314  -0.001110   0.004147  -0.004106   0.003347
   91  BR 7  Z   -0.001505   0.000213  -0.002899   0.002609   0.003049
   92  H  8  S    0.000192  -0.000060   0.000006   0.000104  -0.000027
   93  H  8  S   -0.000425   0.000657  -0.000220   0.000591   0.000286
   94  H  9  S   -0.000192  -0.000060  -0.000006   0.000104   0.000027
   95  H  9  S    0.000425   0.000657   0.000220   0.000591  -0.000286
   96  H 10  S   -0.000018  -0.000098  -0.000010  -0.000135   0.000060
   97  H 10  S   -0.000184  -0.000108  -0.000275  -0.000053  -0.000052
   98  H 11  S    0.000018  -0.000098   0.000010  -0.000135  -0.000060
   99  H 11  S    0.000184  -0.000108   0.000275  -0.000053   0.000052
  100  H 12  S    0.000326  -0.000188   0.000232  -0.000108   0.000154
  101  H 12  S   -0.000441   0.000515   0.000147   0.000167  -0.000425
  102  H 13  S   -0.000326  -0.000188  -0.000232  -0.000108  -0.000154
  103  H 13  S    0.000441   0.000515  -0.000147   0.000167   0.000425
  104  H 14  S    0.000000  -0.000076   0.000000   0.000011   0.000000
  105  H 14  S    0.000000  -0.000111   0.000000  -0.000010   0.000000
  106  H 15  S    0.000000  -0.000086   0.000000  -0.000066   0.000000
  107  H 15  S    0.000000  -0.000034   0.000000  -0.000118   0.000000

                     21         22         23         24         25
                   -6.3708    -6.3707    -6.3707    -2.4816    -2.4800
                     A'         A''        A'         A''        A'  
    1  C  1  S    0.000006   0.000010  -0.000007   0.003392   0.002944
    2  C  1  S    0.000047   0.000045  -0.000089   0.018039   0.015226
    3  C  1  X   -0.000027  -0.000059  -0.000019   0.005906   0.001848
    4  C  1  Y   -0.000049   0.000047  -0.000036  -0.007507  -0.004105
    5  C  1  Z    0.000005   0.000011   0.000051   0.003445   0.003494
    6  C  1  S   -0.000085  -0.000373   0.000068  -0.055824  -0.058913
    7  C  1  X    0.000140   0.000217   0.000108  -0.048050  -0.014495
    8  C  1  Y    0.000171   0.000083   0.000106   0.052280   0.017946
    9  C  1  Z    0.000028   0.000005  -0.000229  -0.020645  -0.027250
   10  C  2  S    0.000006  -0.000010  -0.000007  -0.003392   0.002944
   11  C  2  S    0.000047  -0.000045  -0.000089  -0.018039   0.015226
   12  C  2  X   -0.000027   0.000059  -0.000019  -0.005906   0.001848
   13  C  2  Y   -0.000049  -0.000047  -0.000036   0.007507  -0.004105
   14  C  2  Z   -0.000005   0.000011  -0.000051   0.003445  -0.003494
   15  C  2  S   -0.000085   0.000373   0.000068   0.055824  -0.058913
   16  C  2  X    0.000140  -0.000217   0.000108   0.048050  -0.014495
   17  C  2  Y    0.000171  -0.000083   0.000106  -0.052280   0.017946
   18  C  2  Z   -0.000028   0.000005   0.000229  -0.020645   0.027250
   19  C  3  S   -0.000005   0.000004   0.000001  -0.000393  -0.000752
   20  C  3  S   -0.000020   0.000041   0.000021  -0.002016  -0.003685
   21  C  3  X    0.000015   0.000003   0.000011  -0.002200  -0.000243
   22  C  3  Y    0.000059  -0.000031   0.000010   0.000648   0.000261
   23  C  3  Z   -0.000043  -0.000083   0.000035   0.001019  -0.000794
   24  C  3  S   -0.000302   0.000071  -0.000025   0.004319   0.025977
   25  C  3  X   -0.000078   0.000008  -0.000128   0.022865  -0.003186
   26  C  3  Y   -0.000403   0.000197   0.000093  -0.019978  -0.011878
   27  C  3  Z    0.000322   0.000381  -0.000227  -0.000102   0.000802
   28  C  4  S   -0.000005  -0.000004   0.000001   0.000393  -0.000752
   29  C  4  S   -0.000020  -0.000041   0.000021   0.002016  -0.003685
   30  C  4  X    0.000015  -0.000003   0.000011   0.002200  -0.000243
   31  C  4  Y    0.000059   0.000031   0.000010  -0.000648   0.000261
   32  C  4  Z    0.000043  -0.000083  -0.000035   0.001019   0.000794
   33  C  4  S   -0.000302  -0.000071  -0.000025  -0.004319   0.025977
   34  C  4  X   -0.000078  -0.000008  -0.000128  -0.022865  -0.003186
   35  C  4  Y   -0.000403  -0.000197   0.000093   0.019978  -0.011878
   36  C  4  Z   -0.000322   0.000381   0.000227  -0.000102  -0.000802
   37  C  5  S   -0.000014   0.000000   0.000016   0.000000   0.000614
   38  C  5  S   -0.000069   0.000000   0.000129   0.000000   0.003621
   39  C  5  X    0.000026   0.000000   0.000014   0.000000  -0.002086
   40  C  5  Y   -0.000048   0.000000  -0.000039   0.000000  -0.002047
   41  C  5  Z    0.000000   0.000027   0.000000  -0.000679   0.000000
   42  C  5  S    0.000803   0.000000  -0.000500   0.000000  -0.008470
   43  C  5  X    0.000005   0.000000  -0.000018   0.000000   0.012731
   44  C  5  Y   -0.000034   0.000000   0.000369   0.000000   0.017260
   45  C  5  Z    0.000000  -0.000048   0.000000   0.014136   0.000000
   46  BR 6  S   -0.000033   0.000031   0.000037  -0.000142   0.000188
   47  BR 6  S    0.000153  -0.000062  -0.000164   0.002762  -0.002244
   48  BR 6  X   -0.156942  -0.223176  -0.223177  -0.000563   0.000700
   49  BR 6  Y   -0.207731   0.001668   0.001676   0.000905  -0.001084
   50  BR 6  Z    0.163819  -0.211656  -0.211689   0.000748  -0.000668
   51  BR 6  S   -0.000063   0.000714   0.000144   0.007021  -0.003987
   52  BR 6  X    0.381057   0.541864   0.541875   0.001499  -0.001932
   53  BR 6  Y    0.504366  -0.004053  -0.004071  -0.002345   0.002944
   54  BR 6  Z   -0.397758   0.513879   0.513986  -0.002024   0.001800
   55  BR 6 XX   -0.001183  -0.001594  -0.001398  -0.149098   0.123308
   56  BR 6 YY    0.002139  -0.000101   0.000095   0.231600  -0.248829
   57  BR 6 ZZ   -0.001150   0.001239   0.001437  -0.086043   0.127931
   58  BR 6 XY    0.000176   0.001406   0.001405  -0.401174   0.429426
   59  BR 6 XZ    0.001205  -0.000017  -0.000018  -0.267338   0.260795
   60  BR 6 YZ   -0.000274   0.001317   0.001318   0.457471  -0.428304
   61  BR 6  S    0.000296   0.000464  -0.000263   0.020446  -0.014688
   62  BR 6  X    0.014626   0.020911   0.020796  -0.001900   0.002992
   63  BR 6  Y    0.019447  -0.000122  -0.000156   0.002186  -0.003964
   64  BR 6  Z   -0.015193   0.020093   0.019646   0.003016  -0.002036
   65  BR 6  S   -0.000385  -0.000693   0.000421  -0.056823   0.035945
   66  BR 6  X   -0.002404  -0.003528  -0.003417   0.018985  -0.015259
   67  BR 6  Y   -0.003282  -0.000056   0.000071  -0.032212   0.024161
   68  BR 6  Z    0.002298  -0.003922  -0.002963  -0.024284   0.012711
   69  BR 7  S   -0.000033  -0.000031   0.000037   0.000142   0.000188
   70  BR 7  S    0.000153   0.000062  -0.000164  -0.002762  -0.002244
   71  BR 7  X   -0.156942   0.223176  -0.223177   0.000563   0.000700
   72  BR 7  Y   -0.207731  -0.001668   0.001676  -0.000905  -0.001084
   73  BR 7  Z   -0.163819  -0.211656   0.211689   0.000748   0.000668
   74  BR 7  S   -0.000063  -0.000714   0.000144  -0.007021  -0.003987
   75  BR 7  X    0.381057  -0.541864   0.541875  -0.001499  -0.001932
   76  BR 7  Y    0.504366   0.004053  -0.004071   0.002345   0.002944
   77  BR 7  Z    0.397758   0.513879  -0.513986  -0.002024  -0.001800
   78  BR 7 XX   -0.001183   0.001594  -0.001398   0.149098   0.123308
   79  BR 7 YY    0.002139   0.000101   0.000095  -0.231600  -0.248829
   80  BR 7 ZZ   -0.001150  -0.001239   0.001437   0.086043   0.127931
   81  BR 7 XY    0.000176  -0.001406   0.001405   0.401174   0.429426
   82  BR 7 XZ   -0.001205  -0.000017   0.000018  -0.267338  -0.260795
   83  BR 7 YZ    0.000274   0.001317  -0.001318   0.457471   0.428304
   84  BR 7  S    0.000296  -0.000464  -0.000263  -0.020446  -0.014688
   85  BR 7  X    0.014626  -0.020911   0.020796   0.001900   0.002992
   86  BR 7  Y    0.019447   0.000122  -0.000156  -0.002186  -0.003964
   87  BR 7  Z    0.015193   0.020093  -0.019646   0.003016   0.002036
   88  BR 7  S   -0.000385   0.000693   0.000421   0.056823   0.035945
   89  BR 7  X   -0.002404   0.003528  -0.003417  -0.018985  -0.015259
   90  BR 7  Y   -0.003282   0.000056   0.000071   0.032212   0.024161
   91  BR 7  Z   -0.002298  -0.003922   0.002963  -0.024284  -0.012711
   92  H  8  S    0.000036  -0.000020   0.000049  -0.000014   0.003876
   93  H  8  S   -0.000006   0.000537  -0.000230  -0.007608   0.003870
   94  H  9  S    0.000036   0.000020   0.000049   0.000014   0.003876
   95  H  9  S   -0.000006  -0.000537  -0.000230   0.007608   0.003870
   96  H 10  S   -0.000047  -0.000077   0.000037   0.001719  -0.001740
   97  H 10  S    0.000026  -0.000119  -0.000007   0.006709  -0.000836
   98  H 11  S   -0.000047   0.000077   0.000037  -0.001719  -0.001740
   99  H 11  S    0.000026   0.000119  -0.000007  -0.006709  -0.000836
  100  H 12  S   -0.000122   0.000092  -0.000048  -0.002431  -0.000895
  101  H 12  S    0.000461  -0.000351   0.000334  -0.014784  -0.004409
  102  H 13  S   -0.000122  -0.000092  -0.000048   0.002431  -0.000895
  103  H 13  S    0.000461   0.000351   0.000334   0.014784  -0.004409
  104  H 14  S   -0.000042   0.000000   0.000013   0.000000   0.002018
  105  H 14  S   -0.000084   0.000000  -0.000017   0.000000   0.002311
  106  H 15  S   -0.000029   0.000000   0.000022   0.000000  -0.001649
  107  H 15  S   -0.000102   0.000000  -0.000105   0.000000  -0.008484

                     26         27         28         29         30
                   -2.4746    -2.4745    -2.4740    -2.4739    -2.4613
                     A''        A''        A'         A'         A'' 
    1  C  1  S   -0.000602   0.000861   0.000521   0.000191  -0.000005
    2  C  1  S   -0.003236   0.004707   0.002803   0.001231  -0.000060
    3  C  1  X   -0.006510   0.001033  -0.000531   0.003742  -0.000202
    4  C  1  Y   -0.003376  -0.001499   0.001992   0.001331   0.000182
    5  C  1  Z   -0.000203  -0.004668   0.004439  -0.002345   0.000476
    6  C  1  S    0.019886  -0.034911  -0.021050  -0.000448  -0.000099
    7  C  1  X    0.045506  -0.006947   0.001525  -0.017290   0.000055
    8  C  1  Y    0.030108   0.008966  -0.011745  -0.008194  -0.001725
    9  C  1  Z   -0.004754   0.051549  -0.015613   0.006605  -0.004688
   10  C  2  S    0.000602  -0.000861   0.000521   0.000191   0.000005
   11  C  2  S    0.003236  -0.004707   0.002803   0.001231   0.000060
   12  C  2  X    0.006510  -0.001033  -0.000531   0.003742   0.000202
   13  C  2  Y    0.003376   0.001499   0.001992   0.001331  -0.000182
   14  C  2  Z   -0.000203  -0.004668  -0.004439   0.002345   0.000476
   15  C  2  S   -0.019886   0.034911  -0.021050  -0.000448   0.000099
   16  C  2  X   -0.045506   0.006947   0.001525  -0.017290  -0.000055
   17  C  2  Y   -0.030108  -0.008966  -0.011745  -0.008194   0.001725
   18  C  2  Z   -0.004754   0.051549   0.015613  -0.006605  -0.004688
   19  C  3  S    0.000871   0.000170  -0.000476  -0.000496  -0.000034
   20  C  3  S    0.004390   0.001097  -0.002430  -0.002617  -0.000230
   21  C  3  X    0.000994  -0.001126   0.001290  -0.000548  -0.000014
   22  C  3  Y    0.001591  -0.000123  -0.000994  -0.000505   0.000509
   23  C  3  Z   -0.000691   0.000719  -0.000214   0.001054  -0.000032
   24  C  3  S   -0.036293  -0.007358   0.017781   0.018389   0.000187
   25  C  3  X   -0.000590   0.008891  -0.014015   0.003612  -0.000932
   26  C  3  Y    0.017397   0.003795  -0.004208  -0.002282  -0.003670
   27  C  3  Z    0.012384  -0.011407   0.000073  -0.013602   0.000898
   28  C  4  S   -0.000871  -0.000170  -0.000476  -0.000496   0.000034
   29  C  4  S   -0.004390  -0.001097  -0.002430  -0.002617   0.000230
   30  C  4  X   -0.000994   0.001126   0.001290  -0.000548   0.000014
   31  C  4  Y   -0.001591   0.000123  -0.000994  -0.000505  -0.000509
   32  C  4  Z   -0.000691   0.000719   0.000214  -0.001054  -0.000032
   33  C  4  S    0.036293   0.007358   0.017781   0.018389  -0.000187
   34  C  4  X    0.000590  -0.008891  -0.014015   0.003612   0.000932
   35  C  4  Y   -0.017397  -0.003795  -0.004208  -0.002282   0.003670
   36  C  4  Z    0.012384  -0.011407  -0.000073   0.013602   0.000898
   37  C  5  S    0.000000   0.000000   0.000231   0.000454   0.000000
   38  C  5  S    0.000000   0.000000   0.001060   0.002148   0.000000
   39  C  5  X    0.000000   0.000000  -0.000840   0.000560   0.000000
   40  C  5  Y    0.000000   0.000000   0.000321   0.000772   0.000000
   41  C  5  Z    0.001401  -0.000630   0.000000   0.000000  -0.000130
   42  C  5  S    0.000000   0.000000  -0.008007  -0.019805   0.000000
   43  C  5  X    0.000000   0.000000   0.008901  -0.007365   0.000000
   44  C  5  Y    0.000000   0.000000   0.003083   0.007171   0.000000
   45  C  5  Z    0.000212  -0.001418   0.000000   0.000000   0.002798
   46  BR 6  S   -0.000018   0.000004  -0.000021   0.000005  -0.000002
   47  BR 6  S    0.000076  -0.000005   0.000038  -0.000094   0.000072
   48  BR 6  X   -0.001110   0.000366  -0.000017  -0.001091  -0.000036
   49  BR 6  Y   -0.000570  -0.000639  -0.000649  -0.000501  -0.000011
   50  BR 6  Z    0.000015   0.001072   0.001022  -0.000306   0.000020
   51  BR 6  S    0.000050   0.000146  -0.000322  -0.000419   0.000429
   52  BR 6  X    0.002996  -0.000998   0.000058   0.002904   0.000097
   53  BR 6  Y    0.001497   0.001728   0.001708   0.001366   0.000045
   54  BR 6  Z   -0.000052  -0.002910  -0.002724   0.000818  -0.000117
   55  BR 6 XX    0.476657  -0.130102  -0.009414   0.502273  -0.301769
   56  BR 6 YY   -0.459437  -0.393810  -0.486199  -0.349370  -0.144718
   57  BR 6 ZZ   -0.017505   0.523804   0.495640  -0.152525   0.446090
   58  BR 6 XY   -0.292352   0.274583   0.156112  -0.333610  -0.419800
   59  BR 6 XZ   -0.301000  -0.196540  -0.287219  -0.224657   0.306552
   60  BR 6 YZ   -0.175619   0.296237   0.267160  -0.269935  -0.149815
   61  BR 6  S    0.000193   0.000088  -0.000232  -0.000727   0.000593
   62  BR 6  X   -0.002614   0.000982  -0.000145  -0.001717  -0.000082
   63  BR 6  Y   -0.000825  -0.001449  -0.000824  -0.001345  -0.000253
   64  BR 6  Z    0.000120   0.002865   0.001695  -0.000590   0.001036
   65  BR 6  S    0.000437   0.000967   0.001525   0.000885  -0.001048
   66  BR 6  X    0.007255  -0.002898  -0.000607   0.003719   0.000315
   67  BR 6  Y    0.004076   0.004288   0.003117   0.002509   0.000061
   68  BR 6  Z    0.000555  -0.007415  -0.003209   0.001367  -0.001494
   69  BR 7  S    0.000018  -0.000004  -0.000021   0.000005   0.000002
   70  BR 7  S   -0.000076   0.000005   0.000038  -0.000094  -0.000072
   71  BR 7  X    0.001110  -0.000366  -0.000017  -0.001091   0.000036
   72  BR 7  Y    0.000570   0.000639  -0.000649  -0.000501   0.000011
   73  BR 7  Z    0.000015   0.001072  -0.001022   0.000306   0.000020
   74  BR 7  S   -0.000050  -0.000146  -0.000322  -0.000419  -0.000429
   75  BR 7  X   -0.002996   0.000998   0.000058   0.002904  -0.000097
   76  BR 7  Y   -0.001497  -0.001728   0.001708   0.001366  -0.000045
   77  BR 7  Z   -0.000052  -0.002910   0.002724  -0.000818  -0.000117
   78  BR 7 XX   -0.476657   0.130102  -0.009414   0.502273   0.301769
   79  BR 7 YY    0.459437   0.393810  -0.486199  -0.349370   0.144718
   80  BR 7 ZZ    0.017505  -0.523804   0.495640  -0.152525  -0.446090
   81  BR 7 XY    0.292352  -0.274583   0.156112  -0.333610   0.419800
   82  BR 7 XZ   -0.301000  -0.196540   0.287219   0.224657   0.306552
   83  BR 7 YZ   -0.175619   0.296237  -0.267160   0.269935  -0.149815
   84  BR 7  S   -0.000193  -0.000088  -0.000232  -0.000727  -0.000593
   85  BR 7  X    0.002614  -0.000982  -0.000145  -0.001717   0.000082
   86  BR 7  Y    0.000825   0.001449  -0.000824  -0.001345   0.000253
   87  BR 7  Z    0.000120   0.002865  -0.001695   0.000590   0.001036
   88  BR 7  S   -0.000437  -0.000967   0.001525   0.000885   0.001048
   89  BR 7  X   -0.007255   0.002898  -0.000607   0.003719  -0.000315
   90  BR 7  Y   -0.004076  -0.004288   0.003117   0.002509  -0.000061
   91  BR 7  Z    0.000555  -0.007415   0.003209  -0.001367  -0.001494
   92  H  8  S    0.003816  -0.000179   0.002288  -0.001960   0.000037
   93  H  8  S    0.019522  -0.008881   0.004306  -0.010042   0.001216
   94  H  9  S   -0.003816   0.000179   0.002288  -0.001960  -0.000037
   95  H  9  S   -0.019522   0.008881   0.004306  -0.010042  -0.001216
   96  H 10  S    0.000489   0.002191  -0.001920   0.000246   0.000011
   97  H 10  S   -0.004560   0.003946  -0.003190   0.004494   0.000080
   98  H 11  S   -0.000489  -0.002191  -0.001920   0.000246  -0.000011
   99  H 11  S    0.004560  -0.003946  -0.003190   0.004494  -0.000080
  100  H 12  S    0.001894  -0.000715   0.000695  -0.000879  -0.000522
  101  H 12  S    0.004134  -0.000888   0.003362  -0.003229   0.001355
  102  H 13  S   -0.001894   0.000715   0.000695  -0.000879   0.000522
  103  H 13  S   -0.004134   0.000888   0.003362  -0.003229  -0.001355
  104  H 14  S    0.000000   0.000000   0.001469   0.000208   0.000000
  105  H 14  S    0.000000   0.000000   0.003156  -0.002686   0.000000
  106  H 15  S    0.000000   0.000000  -0.000704   0.001110   0.000000
  107  H 15  S    0.000000   0.000000  -0.001476   0.002661   0.000000

                     31         32         33         34         35
                   -2.4613    -2.4613    -2.4613    -0.8817    -0.7815
                     A'         A''        A'         A'         A'' 
    1  C  1  S   -0.000034   0.000011   0.000033  -0.111749  -0.082719
    2  C  1  S   -0.000196   0.000071   0.000247   0.107120   0.068068
    3  C  1  X   -0.000285   0.000291  -0.000138   0.015606   0.016680
    4  C  1  Y    0.000027  -0.000174  -0.000053   0.032071   0.001379
    5  C  1  Z   -0.000012  -0.000165   0.000045  -0.032001   0.063709
    6  C  1  S    0.001390  -0.000469  -0.001000   0.263918   0.268887
    7  C  1  X    0.001778  -0.002713   0.000809   0.004488   0.028383
    8  C  1  Y    0.001172  -0.000275  -0.000310   0.009099  -0.021431
    9  C  1  Z    0.000601   0.000897  -0.000193   0.003079   0.018789
   10  C  2  S   -0.000034  -0.000011   0.000033  -0.111749   0.082719
   11  C  2  S   -0.000196  -0.000071   0.000247   0.107120  -0.068068
   12  C  2  X   -0.000285  -0.000291  -0.000138   0.015606  -0.016680
   13  C  2  Y    0.000027   0.000174  -0.000053   0.032071  -0.001379
   14  C  2  Z    0.000012  -0.000165  -0.000045   0.032001   0.063709
   15  C  2  S    0.001390   0.000469  -0.001000   0.263918  -0.268887
   16  C  2  X    0.001778   0.002713   0.000809   0.004488  -0.028383
   17  C  2  Y    0.001172   0.000275  -0.000310   0.009099   0.021431
   18  C  2  Z   -0.000601   0.000897   0.000193  -0.003079   0.018789
   19  C  3  S    0.000067  -0.000015   0.000008  -0.091770  -0.070811
   20  C  3  S    0.000461  -0.000141   0.000091   0.092298   0.067373
   21  C  3  X    0.000015  -0.000042  -0.000049  -0.018224  -0.010614
   22  C  3  Y   -0.000618   0.000455   0.000065  -0.019366  -0.030515
   23  C  3  Z    0.000245  -0.000308   0.000150  -0.044605   0.006501
   24  C  3  S   -0.001185  -0.000166  -0.000080   0.181707   0.179839
   25  C  3  X    0.000397   0.000546  -0.000265  -0.000769  -0.009146
   26  C  3  Y    0.003598  -0.003029  -0.000020   0.003443   0.012204
   27  C  3  Z   -0.001104   0.001451  -0.001117  -0.011148  -0.003986
   28  C  4  S    0.000067   0.000015   0.000008  -0.091770   0.070811
[...]
                     26         27         28         29         30

                  2.000000   2.000000   2.000000   2.000000   2.000000

    1             0.001124   0.000868   0.000480   0.000487   0.000005
    2             0.001124   0.000868   0.000480   0.000487   0.000005
    3            -0.000197  -0.000044  -0.000069  -0.000050   0.000002
    4            -0.000197  -0.000044  -0.000069  -0.000050   0.000002
    5            -0.000001  -0.000000   0.000000   0.000004   0.000000
    6             0.999148   0.999229   0.999592   0.999619   0.999990
    7             0.999148   0.999229   0.999592   0.999619   0.999990
    8            -0.000083  -0.000058  -0.000001  -0.000068   0.000001
    9            -0.000083  -0.000058  -0.000001  -0.000068   0.000001
   10            -0.000003   0.000005   0.000002  -0.000000   0.000000
   11            -0.000003   0.000005   0.000002  -0.000000   0.000000
   12             0.000013  -0.000001  -0.000005   0.000010   0.000002
   13             0.000013  -0.000001  -0.000005   0.000010   0.000002
   14             0.000000   0.000000  -0.000000   0.000000   0.000000
   15             0.000000   0.000000   0.000000   0.000000   0.000000

                     31         32         33         34         35

                  2.000000   2.000000   2.000000   2.000000   2.000000

    1            -0.000001  -0.000002  -0.000000   0.469743   0.286558
    2            -0.000001  -0.000002  -0.000000   0.469743   0.286558
    3             0.000008   0.000007   0.000000   0.293551   0.146209
    4             0.000008   0.000007   0.000000   0.293551   0.146209
    5             0.000000   0.000000  -0.000000   0.254405   0.000694
    6             0.999990   0.999992   0.999998   0.087870   0.536165
    7             0.999990   0.999992   0.999998   0.087870   0.536165
    8             0.000002   0.000004   0.000001   0.006938   0.012982
    9             0.000002   0.000004   0.000001   0.006938   0.012982
   10            -0.000000  -0.000000  -0.000000   0.004725   0.009153
   11            -0.000000  -0.000000  -0.000000   0.004725   0.009153
   12             0.000000  -0.000000   0.000002   0.005693   0.008586
   13             0.000000  -0.000000   0.000002   0.005693   0.008586
   14            -0.000000   0.000000   0.000000   0.004837   0.000000
   15            -0.000000   0.000000  -0.000000   0.003717   0.000000

                     36         37         38         39         40

                  2.000000   2.000000   2.000000   2.000000   2.000000

    1             0.139694   0.079241   0.332714   0.150880   0.426195
    2             0.139694   0.079241   0.332714   0.150880   0.426195
    3             0.150384   0.488027   0.045234   0.329920   0.194101
    4             0.150384   0.488027   0.045234   0.329920   0.194101
    5             0.447018   0.056124   0.329871   0.506953   0.063092
    6             0.452203   0.315965   0.378902   0.006491   0.141810
    7             0.452203   0.315965   0.378902   0.006491   0.141810
    8             0.003389   0.004004   0.035231   0.027475   0.136901
    9             0.003389   0.004004   0.035231   0.027475   0.136901
   10             0.004940   0.055697   0.001903   0.042503   0.028083
   11             0.004940   0.055697   0.001903   0.042503   0.028083
   12             0.005028   0.029004   0.004232   0.081552   0.041364
   13             0.005028   0.029004   0.004232   0.081552   0.041364
   14             0.019220   0.000000   0.024125   0.128987   0.000000
   15             0.022485   0.000000   0.049571   0.086422   0.000000

                     41         42         43         44         45

                  2.000000   2.000000   2.000000   2.000000   2.000000

    1             0.336269   0.188157   0.155098   0.314293   0.497334
    2             0.336269   0.188157   0.155098   0.314293   0.497334
    3             0.330239   0.232595   0.429258   0.114287   0.196702
    4             0.330239   0.232595   0.429258   0.114287   0.196702
    5             0.103998   0.538005   0.146748   0.409321   0.041577
    6             0.015608   0.079190   0.071523   0.163363   0.147124
    7             0.015608   0.079190   0.071523   0.163363   0.147124
    8             0.100170   0.010645   0.039982   0.088389   0.016904
    9             0.100170   0.010645   0.039982   0.088389   0.016904
   10             0.147223   0.000107   0.095925   0.016466   0.099092
   11             0.147223   0.000107   0.095925   0.016466   0.099092
   12             0.003218   0.084346   0.134841   0.003612   0.000459
   13             0.003218   0.084346   0.134841   0.003612   0.000459
   14             0.030507   0.050575   0.000000   0.184750   0.000767
   15             0.000043   0.221339   0.000000   0.005108   0.042422

                     46         47         48         49         50

                  2.000000   2.000000   2.000000   2.000000   2.000000

    1             0.332261   0.226678   0.033343   0.061554   0.260212
    2             0.332261   0.226678   0.033343   0.061554   0.260212
    3             0.378396   0.099356   0.496594   0.242492   0.100913
    4             0.378396   0.099356   0.496594   0.242492   0.100913
    5             0.004055   0.493284   0.439501   0.366268   0.123722
    6             0.104109   0.204824   0.019115   0.106872   0.434274
    7             0.104109   0.204824   0.019115   0.106872   0.434274
    8             0.067251   0.007344   0.016422   0.018061   0.086839
    9             0.067251   0.007344   0.016422   0.018061   0.086839
   10             0.020580   0.009565   0.205051   0.033402   0.004813
   11             0.020580   0.009565   0.205051   0.033402   0.004813
   12             0.095375   0.018010   0.009725   0.191950   0.051087
   13             0.095375   0.018010   0.009725   0.191950   0.051087
   14             0.000000   0.041263   0.000000   0.310468   0.000000
   15             0.000000   0.333898   0.000000   0.014603   0.000000

                     51         52         53         54

                  2.000000   2.000000   2.000000   2.000000

    1             0.075713   0.016120   0.021047   0.023646
    2             0.075713   0.016120   0.021047   0.023646
    3             0.019117   0.034670   0.029045   0.003652
    4             0.019117   0.034670   0.029045   0.003652
    5             0.002925   0.036435   0.018929   0.013742
    6             0.870410   0.914922   0.911260   0.961874
    7             0.870410   0.914922   0.911260   0.961874
    8             0.022919   0.006100   0.025462   0.002014
    9             0.022919   0.006100   0.025462   0.002014
   10             0.007642   0.001421   0.000202   0.001582
   11             0.007642   0.001421   0.000202   0.001582
   12             0.001334   0.001612   0.003520   0.000361
   13             0.001334   0.001612   0.003520   0.000361
   14             0.000240   0.004430   0.000000   0.000000
   15             0.002564   0.009446   0.000000   0.000000

               ----- POPULATIONS IN EACH AO -----
                             MULLIKEN      LOWDIN
              1  C  1  S      1.98817     1.97491
              2  C  1  S      0.35879     0.44571
              3  C  1  X      0.56420     0.53378
              4  C  1  Y      0.48220     0.46687
              5  C  1  Z      0.52441     0.50411
              6  C  1  S      1.15073     0.61084
              7  C  1  X      0.52674     0.56744
              8  C  1  Y      0.43529     0.53973
              9  C  1  Z      0.40158     0.53765
             10  C  2  S      1.98817     1.97491
             11  C  2  S      0.35879     0.44571
             12  C  2  X      0.56420     0.53378
             13  C  2  Y      0.48220     0.46687
             14  C  2  Z      0.52441     0.50411
             15  C  2  S      1.15073     0.61084
             16  C  2  X      0.52674     0.56744
             17  C  2  Y      0.43529     0.53973
             18  C  2  Z      0.40158     0.53765
             19  C  3  S      1.98785     1.97431
             20  C  3  S      0.36213     0.42752
             21  C  3  X      0.57092     0.53559
             22  C  3  Y      0.52710     0.50660
             23  C  3  Z      0.56598     0.53727
             24  C  3  S      1.08615     0.56629
             25  C  3  X      0.49640     0.56894
             26  C  3  Y      0.32207     0.51110
             27  C  3  Z      0.42900     0.53916
             28  C  4  S      1.98785     1.97431
             29  C  4  S      0.36213     0.42752
             30  C  4  X      0.57092     0.53559
             31  C  4  Y      0.52710     0.50660
             32  C  4  Z      0.56598     0.53727
             33  C  4  S      1.08615     0.56629
             34  C  4  X      0.49640     0.56894
             35  C  4  Y      0.32207     0.51110
             36  C  4  Z      0.42900     0.53916
             37  C  5  S      1.98766     1.97420
             38  C  5  S      0.35999     0.42278
             39  C  5  X      0.57080     0.53200
             40  C  5  Y      0.56029     0.53253
             41  C  5  Z      0.53081     0.51096
             42  C  5  S      1.09592     0.56503
             43  C  5  X      0.52183     0.57562
             44  C  5  Y      0.42274     0.53630
             45  C  5  Z      0.33963     0.51489
             46  BR 6  S      2.00017     1.99971
             47  BR 6  S      2.00433     1.98110
             48  BR 6  X      1.99651     1.99521
             49  BR 6  Y      1.99609     1.99452
             50  BR 6  Z      1.99640     1.99508
             51  BR 6  S      2.06706     0.94736
             52  BR 6  X      1.98655     1.93717
             53  BR 6  Y      1.98411     1.92593
             54  BR 6  Z      1.98613     1.93516
             55  BR 6 XX      1.30883     1.68727
             56  BR 6 YY      1.30720     1.68840
             57  BR 6 ZZ      1.30863     1.68750
             58  BR 6 XY      1.99794     1.99856
             59  BR 6 XZ      1.99913     1.99939
             60  BR 6 YZ      1.99752     1.99832
             61  BR 6  S      0.86304     0.92791
             62  BR 6  X      0.83023     0.86633
             63  BR 6  Y      0.72193     0.74672
             64  BR 6  Z      0.81399     0.84713
             65  BR 6  S      1.09105     0.96426
             66  BR 6  X      0.99765     1.03285
             67  BR 6  Y      0.71943     0.81781
             68  BR 6  Z      0.94247     0.99328
             69  BR 7  S      2.00017     1.99971
             70  BR 7  S      2.00433     1.98110
             71  BR 7  X      1.99651     1.99521
             72  BR 7  Y      1.99609     1.99452
             73  BR 7  Z      1.99640     1.99508
             74  BR 7  S      2.06706     0.94736
             75  BR 7  X      1.98655     1.93717
             76  BR 7  Y      1.98411     1.92593
             77  BR 7  Z      1.98613     1.93516
             78  BR 7 XX      1.30883     1.68727
             79  BR 7 YY      1.30720     1.68840
             80  BR 7 ZZ      1.30863     1.68750
             81  BR 7 XY      1.99794     1.99856
             82  BR 7 XZ      1.99913     1.99939
             83  BR 7 YZ      1.99752     1.99832
             84  BR 7  S      0.86304     0.92791
             85  BR 7  X      0.83023     0.86633
             86  BR 7  Y      0.72193     0.74672
             87  BR 7  Z      0.81399     0.84713
             88  BR 7  S      1.09105     0.96426
             89  BR 7  X      0.99765     1.03285
             90  BR 7  Y      0.71943     0.81781
             91  BR 7  Z      0.94247     0.99328
             92  H  8  S      0.47146     0.48260
             93  H  8  S      0.26729     0.40862
             94  H  9  S      0.47146     0.48260
             95  H  9  S      0.26729     0.40862
             96  H 10  S      0.47163     0.47374
             97  H 10  S      0.32129     0.42930
             98  H 11  S      0.47163     0.47374
             99  H 11  S      0.32129     0.42930
            100  H 12  S      0.46863     0.47460
            101  H 12  S      0.30974     0.42546
            102  H 13  S      0.46863     0.47460
            103  H 13  S      0.30974     0.42546
            104  H 14  S      0.47133     0.47714
            105  H 14  S      0.33216     0.43658
            106  H 15  S      0.47090     0.47257
            107  H 15  S      0.32365     0.43118

          ----- MULLIKEN ATOMIC OVERLAP POPULATIONS -----
          (OFF-DIAGONAL ELEMENTS NEED TO BE MULTIPLIED BY 2)

             1           2           3           4           5

    1    5.8012458
    2    0.1512189   5.8012458
    3    0.2174545  -0.0776346   5.4782340
    4   -0.0776346   0.2174545  -0.1040132   5.4782340
    5   -0.0867425  -0.0867425   0.2547061   0.2547061   5.4356922
    6   -0.0441127   0.2294459   0.0023852  -0.0579725   0.0037118
    7    0.2294459  -0.0441127  -0.0579725   0.0023852   0.0037118
    8    0.3602203  -0.0448897  -0.0428871   0.0038964   0.0020297
    9   -0.0448897   0.3602203   0.0038964  -0.0428871   0.0020297
   10   -0.0360165   0.0039447   0.3757232   0.0037132  -0.0295903
   11    0.0039447  -0.0360165   0.0037132   0.3757232  -0.0295903
   12   -0.0453506   0.0002270   0.3655188   0.0010243  -0.0397978
   13    0.0002270  -0.0453506   0.0010243   0.3655188  -0.0397978
   14   -0.0006140  -0.0006140  -0.0418527  -0.0418527   0.3683754
   15    0.0037213   0.0037213  -0.0306880  -0.0306880   0.3769778

             6           7           8           9          10

    6   34.8159556
    7   -0.0008958  34.8159556
    8    0.0019542  -0.0389656   0.4999756
    9   -0.0389656   0.0019542  -0.0031584   0.4999756
   10   -0.0000297   0.0023988  -0.0040022  -0.0001404   0.5045031
   11    0.0023988  -0.0000297  -0.0001404  -0.0040022  -0.0000671
   12    0.0000498   0.0025635   0.0035540  -0.0000014  -0.0245150
   13    0.0025635   0.0000498  -0.0000014   0.0035540  -0.0000830
   14   -0.0000473  -0.0000473   0.0012379   0.0012379  -0.0031784
   15   -0.0000611  -0.0000611  -0.0000722  -0.0000722   0.0002611

            11          12          13          14          15

   11    0.5045031
   12   -0.0000830   0.5130513
   13   -0.0245150   0.0024501   0.5130513
   14   -0.0031784   0.0034185   0.0034185   0.5437610
   15    0.0002611  -0.0037418  -0.0037418  -0.0265818   0.5053119

          TOTAL MULLIKEN AND LOWDIN ATOMIC POPULATIONS
       ATOM         MULL.POP.    CHARGE          LOW.POP.     CHARGE
    1 C             6.432118   -0.432118         6.181044   -0.181044
    2 C             6.432118   -0.432118         6.181044   -0.181044
    3 C             6.347608   -0.347608         6.166784   -0.166784
    4 C             6.347608   -0.347608         6.166784   -0.166784
    5 C             6.389679   -0.389679         6.164324   -0.164324
    6 BR           34.916380    0.083620        34.966951    0.033049
    7 BR           34.916380    0.083620        34.966951    0.033049
    8 H             0.738751    0.261249         0.891224    0.108776
    9 H             0.738751    0.261249         0.891224    0.108776
   10 H             0.792921    0.207079         0.903039    0.096961
   11 H             0.792921    0.207079         0.903039    0.096961
   12 H             0.778368    0.221632         0.900062    0.099938
   13 H             0.778368    0.221632         0.900062    0.099938
   14 H             0.803483    0.196517         0.913718    0.086282
   15 H             0.794546    0.205454         0.903748    0.096252

          -------------------------------
          BOND ORDER AND VALENCE ANALYSIS     BOND ORDER THRESHOLD=0.050
          -------------------------------

                   BOND                       BOND                       BOND
  ATOM PAIR DIST  ORDER      ATOM PAIR DIST  ORDER      ATOM PAIR DIST  ORDER
    1   2  1.568  0.848        1   3  1.547  0.891        1   7  1.989  1.004
    1   8  1.090  0.878        2   4  1.547  0.891        2   6  1.989  1.004
    2   9  1.090  0.878        3   5  1.550  0.918        3  10  1.093  0.919
    3  12  1.095  0.901        4   5  1.550  0.918        4  11  1.093  0.919
    4  13  1.095  0.901        5  14  1.096  0.911        5  15  1.094  0.919

                       TOTAL       BONDED        FREE
      ATOM            VALENCE     VALENCE     VALENCE
    1 C                 3.594       3.594      -0.000
    2 C                 3.594       3.594      -0.000
    3 C                 3.598       3.598       0.000
    4 C                 3.598       3.598       0.000
    5 C                 3.640       3.640       0.000
    6 BR                1.080       1.080       0.000
    7 BR                1.080       1.080       0.000
    8 H                 0.878       0.878       0.000
    9 H                 0.878       0.878       0.000
   10 H                 0.919       0.919      -0.000
   11 H                 0.919       0.919      -0.000
   12 H                 0.910       0.910      -0.000
   13 H                 0.910       0.910      -0.000
   14 H                 0.913       0.913      -0.000
   15 H                 0.919       0.919       0.000

          ---------------------
          ELECTROSTATIC MOMENTS
          ---------------------

 POINT   1           X           Y           Z (BOHR)    CHARGE
                -0.078722   -0.028235    0.000000        0.00 (A.U.)
         DX          DY          DZ         /D/  (DEBYE)
    -1.131787    2.998906   -0.000000    3.205367
 ...... END OF PROPERTY EVALUATION ......
 STEP CPU TIME =     0.03 TOTAL CPU TIME =        125.5 (      2.1 MIN)
 TOTAL WALL CLOCK TIME=        126.2 SECONDS, CPU UTILIZATION IS    99.42%
  $VIB   
          IVIB=   0 IATOM=   0 ICOORD=   0 E=    -5317.4825010146
  9.060676919E-05-1.180610691E-04-1.716894920E-04 9.060676919E-05-1.180610691E-04
  1.716894920E-04 1.696318009E-04-1.105741300E-04 8.853822779E-05 1.696318009E-04
 -1.105741300E-04-8.853822779E-05-1.253396493E-04-3.123789379E-05 0.000000000E+00
 -1.014383361E-04 2.191124506E-04 1.991551282E-04-1.014383361E-04 2.191124506E-04
 -1.991551282E-04-4.254758810E-05-8.978554413E-05-3.347005386E-05-4.254758810E-05
 -8.978554413E-05 3.347005386E-05-1.107937295E-04-7.969212141E-05 1.496690505E-04
 -1.107937295E-04-7.969212141E-05-1.496690505E-04-6.290847677E-06-3.255045655E-05
  7.707758476E-05-6.290847677E-06-3.255045655E-05-7.707758476E-05 1.283168488E-04
  1.744287983E-04 0.000000000E+00-1.313337056E-06 2.799108367E-04 0.000000000E+00
 -1.131786974E+00 2.998906201E+00-3.612066735E-14
 ......END OF GEOMETRY SEARCH......
 STEP CPU TIME =     0.01 TOTAL CPU TIME =        125.5 (      2.1 MIN)
 TOTAL WALL CLOCK TIME=        126.3 SECONDS, CPU UTILIZATION IS    99.41%
               1106307  WORDS OF DYNAMIC MEMORY USED
 EXECUTION OF GAMESS TERMINATED NORMALLY Mon Oct 31 04:14:10 2022
 DDI: 263640 bytes (0.3 MB / 0 MWords) used by master data server.

 ----------------------------------------
 CPU timing information for all processes
 ========================================
 0: 124.981 + 0.551 = 125.533
 ----------------------------------------
 ddikick.x: exited gracefully.
----- accounting info -----
Files used on the master node chemcompute-node-0.novalocal were:
-rw-r--r--. 1 chemcomp chemcomp      871 Oct 31 04:12 /scratch/141859/483925.F05
-rw-rw-r--. 1 chemcomp chemcomp 57344000 Oct 31 04:14 /scratch/141859/483925.F10
-rw-rw-r--. 1 chemcomp chemcomp  7460856 Oct 31 04:13 /scratch/141859/483925.F22
Mon Oct 31 04:14:14 UTC 2022
0.093u 0.044s 2:09.61 0.1%	0+0k 8+208io 0pf+0w
Finishing Up...
Looking for IR data...
Looking for Raman data...
vibramans not found
Looking for thermodynamics data...
Looking for UV-Vis data...
chemcompute.org
{'UTCtimestamp': '2022-10-31T04:14:15.730543', 'cluster': 'jetstream2', 'clusterJobNumber': '141859', 'status': 'COMPLETE', 'nodeList': 'chemcompute-node-0'}
141859
